<VTKFile type="PolyData" version="1.0" byte_order="LittleEndian" header_type="UInt64">
  <PolyData>
    <Piece NumberOfPoints="2601" NumberOfVerts="0" NumberOfLines="0" NumberOfStrips="0" NumberOfPolys="2500">
      <PointData>
        <DataArray type="Float32" Name="zvalue" NumberOfComponents="1" format="ascii" RangeMin="-1.569321842728918" RangeMax="2.312535423847214">
          2.312535423847214 2.312535423847214 2.312535423847214 2.312535423847214 2.312535423847214 2.312535423847214
          2.312535423847214 2.312535423847214 2.312535423847214 2.312535423847214 2.312535423847214 2.312535423847214
          2.312535423847214 2.312535423847214 2.312535423847214 2.312535423847214 2.312535423847214 2.312535423847214
          2.312535423847214 2.312535423847214 2.312535423847214 2.312535423847214 2.312535423847214 2.312535423847214
          2.312535423847214 2.312535423847214 2.312535423847214 2.312535423847214 2.312535423847214 2.312535423847214
          2.312535423847214 2.312535423847214 2.312535423847214 2.312535423847214 2.312535423847214 2.312535423847214
          2.312535423847214 2.312535423847214 2.312535423847214 2.312535423847214 2.312535423847214 2.312535423847214
          2.312535423847214 2.312535423847214 2.312535423847214 2.312535423847214 2.312535423847214 2.312535423847214
          2.312535423847214 2.312535423847214 2.312535423847214 2.312535423847214 2.312535423847214 2.312535423847214
          2.312535423847214 2.312535423847214 2.312535423847214 2.312535423847214 2.312535423847214 2.312535423847214
          2.312535423847214 2.312535423847214 2.312535423847214 2.312535423847214 2.312535423847214 2.312535423847214
          2.312535423847214 2.312535423847214 2.312535423847214 2.312535423847214 2.312535423847214 2.312535423847214
          2.312535423847214 2.312535423847214 2.312535423847214 2.312535423847214 2.312535423847214 2.312535423847214
          2.312535423847214 2.312535423847214 2.312535423847214 2.312535423847214 2.312535423847214 2.312535423847214
          2.312535423847214 2.312535423847214 2.312535423847214 2.312535423847214 2.312535423847214 2.312535423847214
          2.312535423847214 2.312535423847214 2.312535423847214 2.312535423847214 2.312535423847214 2.312535423847214
          2.312535423847214 2.312535423847214 2.312535423847214 2.312535423847214 2.312535423847214 2.312535423847214
          2.312535423847214 2.312535423847214 2.312535423847214 2.312535423847214 2.312535423847214 2.312535423847214
          2.312535423847214 2.312535423847214 2.312535423847214 2.312535423847214 2.312535423847214 2.312535423847214
          2.312535423847214 2.312535423847214 2.312535423847214 2.312535423847214 2.312535423847214 2.312535423847214
          2.312535423847214 2.312535423847214 2.312535423847214 2.312535423847214 2.312535423847214 2.312535423847214
          2.312535423847214 2.312535423847214 2.312535423847214 2.312535423847214 2.312535423847214 2.312535423847214
          2.312535423847214 2.312535423847214 2.312535423847214 2.312535423847214 2.312535423847214 2.312535423847214
          2.312535423847214 2.312535423847214 2.312535423847214 2.312535423847214 2.312535423847214 2.312535423847214
          2.312535423847214 2.312535423847214 2.312535423847214 2.312535423847214 2.312535423847214 2.312535423847214
          2.312535423847214 2.312535423847214 2.312535423847214 2.312535423847214 2.312535423847214 2.312535423847214
          2.312535423847214 2.312535423847214 2.312535423847214 2.312535423847214 2.312535423847214 2.312535423847214
          2.312535423847214 2.312535423847214 2.312535423847214 2.312535423847214 2.312535423847214 2.312535423847214
          2.312535423847214 2.312535423847214 2.312535423847214 2.312535423847214 2.312535423847214 2.312535423847214
          2.312535423847214 2.312535423847214 2.312535423847214 2.312535423847214 2.312535423847214 2.312535423847214
          2.312535423847214 2.312535423847214 2.312535423847214 2.312535423847214 2.312535423847214 2.312535423847214
          2.312535423847214 2.312535423847214 2.312535423847214 2.312535423847214 2.312535423847214 2.312535423847214
          2.312535423847214 2.312535423847214 2.312535423847214 2.312535423847214 2.312535423847214 2.312535423847214
          2.312535423847214 2.312535423847214 2.312535423847214 2.312535423847214 2.312535423847214 2.312535423847214
          2.312535423847214 2.312535423847214 2.312535423847214 2.312535423847214 2.312535423847214 2.312535423847214
          2.312535423847214 2.312535423847214 2.312535423847214 2.312535423847214 2.312535423847214 2.312535423847214
          2.312535423847214 2.312535423847214 2.312535423847214 2.312535423847214 2.312535423847214 2.312535423847214
          2.312535423847214 2.312535423847214 2.312535423847214 2.312535423847214 2.312535423847214 2.312535423847214
          2.312535423847214 2.312535423847214 2.312535423847214 2.312535423847214 2.312535423847214 2.312535423847214
          2.312535423847214 2.312535423847214 2.312535423847214 2.312535423847214 2.312535423847214 2.312535423847214
          2.312535423847214 2.312535423847214 2.312535423847214 2.312535423847214 2.312535423847214 2.312535423847214
          2.312535423847214 2.312535423847214 2.312535423847214 2.312535423847214 2.312535423847214 2.312535423847214
          2.312535423847214 2.312535423847214 2.312535423847214 2.312535423847214 2.312535423847214 2.312535423847214
          2.312535423847214 2.312535423847214 2.312535423847214 2.312535423847214 2.312535423847214 2.312535423847214
          2.312535423847214 2.312535423847214 2.312535423847214 2.312535423847214 2.312535423847214 2.312535423847214
          2.312535423847214 2.312535423847214 2.312535423847214 2.312535423847214 2.312535423847214 2.312535423847214
          2.312535423847214 2.312535423847214 2.312535423847214 2.312535423847214 2.312535423847214 2.312535423847214
          2.312535423847214 2.312535423847214 2.312535423847214 2.312535423847214 2.312535423847214 2.312535423847214
          2.312535423847214 2.312535423847214 2.312535423847214 2.312535423847214 2.312535423847214 2.312535423847214
          2.312535423847214 2.312535423847214 2.312535423847214 2.312535423847214 2.312535423847214 2.312535423847214
          2.312535423847214 2.312535423847214 2.312535423847214 2.312535423847214 2.312535423847214 2.312535423847214
          2.312535423847214 2.312535423847214 2.312535423847214 2.312535423847214 2.312535423847214 2.312535423847214
          2.312535423847214 2.312535423847214 2.312535423847214 2.312535423847214 2.312535423847214 2.312535423847214
          2.312535423847214 2.312535423847214 2.312535423847214 2.312535423847214 2.312535423847214 2.312535423847214
          2.312535423847214 2.312535423847214 2.312535423847214 2.312535423847214 2.312535423847214 2.312535423847214
          2.312535423847214 2.312535423847214 2.312535423847214 2.312535423847214 2.312535423847214 2.312535423847214
          2.312535423847214 2.312535423847214 2.312535423847214 2.312535423847214 2.312535423847214 2.312535423847214
          2.312535423847214 2.312535423847214 2.312535423847214 2.312535423847214 2.312535423847214 2.312535423847214
          2.312535423847214 2.312535423847214 2.312535423847214 2.312535423847214 2.312535423847214 2.312535423847214
          2.312535423847214 2.312535423847214 2.312535423847214 2.312535423847214 2.312535423847214 2.312535423847214
          2.312535423847214 2.312535423847214 2.312535423847214 2.312535423847214 2.312535423847214 2.312535423847214
          2.312535423847214 2.312535423847214 2.312535423847214 2.312535423847214 2.312535423847214 2.312535423847214
          2.312535423847214 2.312535423847214 2.312535423847214 2.312535423847214 2.312535423847214 2.312535423847214
          2.312535423847214 2.312535423847214 2.312535423847214 2.312535423847214 2.312535423847214 2.312535423847214
          2.312535423847214 2.312535423847214 2.3123846658304554 2.2111999352855887 2.1862427855535826 2.248425570809576
          2.312535423847214 2.312535423847214 2.312535423847214 2.312535423847214 2.312535423847214 2.312535423847214
          2.312535423847214 2.312535423847214 2.312535423847214 2.312535423847214 2.312535423847214 2.312535423847214
          2.312535423847214 2.312535423847214 2.312535423847214 2.312535423847214 2.312535423847214 2.312535423847214
          2.312535423847214 2.312535423847214 2.312535423847214 2.312535423847214 2.312535423847214 2.312535423847214
          2.312535423847214 2.312535423847214 2.312535423847214 2.312535423847214 2.312535423847214 2.312535423847214
          2.312535423847214 2.312535423847214 2.312535423847214 2.312535423847214 2.312535423847214 2.312535423847214
          2.312535423847214 2.312535423847214 2.312535423847214 2.312535423847214 2.312535423847214 2.312535423847214
          2.312535423847214 2.312535423847214 2.262763523899115 2.1325207190358424 2.0070333427301077 1.911595240195327
          1.8789021517451097 1.933229554760263 2.0390620726671744 2.154312178192105 2.268401724794233 2.312535423847214
          2.312535423847214 2.312535423847214 2.312535423847214 2.312535423847214 2.312535423847214 2.312535423847214
          2.312535423847214 2.312535423847214 2.312535423847214 2.312535423847214 2.312535423847214 2.312535423847214
          2.312535423847214 2.312535423847214 2.312535423847214 2.312535423847214 2.312535423847214 2.312535423847214
          2.312535423847214 2.312535423847214 2.312535423847214 2.312535423847214 2.312535423847214 2.312535423847214
          2.312535423847214 2.312535423847214 2.312535423847214 2.312535423847214 2.312535423847214 2.312535423847214
          2.312535423847214 2.312535423847214 2.312535423847214 2.312535423847214 2.312535423847214 2.312535423847214
          2.309879519743556 2.2358038496869956 2.1601938035740673 2.068986024499208 1.9588016469235956 1.8354897700003774
          1.7156632692372618 1.629090463843998 1.6071454334089128 1.6575906190063177 1.7495752100881348 1.85081122150449
          1.9527789832328994 2.057149594086554 2.1607334392297393 2.254200434038277 2.312535423847214 2.312535423847214
          2.312535423847214 2.312535423847214 2.312535423847214 2.312535423847214 2.312535423847214 2.312535423847214
          2.312535423847214 2.312535423847214 2.312535423847214 2.312535423847214 2.312535423847214 2.312535423847214
          2.312535423847214 2.312535423847214 2.312535423847214 2.312535423847214 2.312535423847214 2.312535423847214
          2.312535423847214 2.312535423847214 2.312535423847214 2.312535423847214 2.312535423847214 2.312535423847214
          2.312535423847214 2.312535423847214 2.312535423847214 2.312535423847214 2.312535423847214 2.2760420981135567
          2.1263560717202914 2.0205078879105223 1.9551559150430382 1.906107700519361 1.8467504012310851 1.767838187378984
          1.6650536049223132 1.549584326716536 1.4413276023505892 1.3636069037744294 1.3437192863765064 1.3815998299599588
          1.4550735648255544 1.541866258920926 1.6332484125937288 1.7309200114421581 1.835619123558422 1.9416544467971462
          2.0384423665518 2.1163646238438556 2.1784335355435482 2.235712203699974 2.3061251900551127 2.312535423847214
          2.312535423847214 2.312535423847214 2.312535423847214 2.312535423847214 2.312535423847214 2.312535423847214
          2.312535423847214 2.312535423847214 2.312535423847214 2.312535423847214 2.312535423847214 2.312535423847214
          2.312535423847214 2.312535423847214 2.312535423847214 2.312535423847214 2.312535423847214 2.312535423847214
          2.312535423847214 2.312535423847214 2.312535423847214 2.312535423847214 2.312535423847214 2.220314359525192
          2.053162389986428 1.8775185963286283 1.7484433911292074 1.6816844563620121 1.6502604688877913 1.62090112726185
          1.575459008797275 1.5097397955844793 1.4245139453529467 1.3282632330198263 1.2343563771768888 1.1613267083314391
          1.1267617233942553 1.1381192907175528 1.1840985493060134 1.2527463164184207 1.3353173787400883 1.4265261619788752
          1.5259895280085678 1.6355240498839654 1.747527809633286 1.8502676762504555 1.9326430438944588 1.997739649893472
          2.058556480510178 2.126000047797036 2.216174744401617 2.312535423847214 2.312535423847214 2.312535423847214
          2.312535423847214 2.312535423847214 2.312535423847214 2.312535423847214 2.312535423847214 2.312535423847214
          2.312535423847214 2.312535423847214 2.312535423847214 2.312535423847214 2.312535423847214 2.312535423847214
          2.312535423847214 2.312535423847214 2.312535423847214 2.312535423847214 2.312535423847214 2.312535423847214
          1.993249295240805 1.8210413847821603 1.6615806192018236 1.5295191622289883 1.4640555657434262 1.4437334731194251
          1.4367226290140593 1.4208562705145324 1.3865718483278135 1.333054512233171 1.2606222761997787 1.1765408593711828
          1.0906102036610987 1.0147629198085373 0.9663312868422724 0.9524495354243867 0.9738448249877028 1.0231192150053967
          1.093680702203954 1.1781587691153022 1.2704083759618452 1.369638114019976 1.4759721895282745 1.5860211638163695
          1.6876711645907272 1.774094361696282 1.8450459825032173 1.9078248438446892 1.975590246636223 2.0598271615981956
          2.179983115949314 2.312535423847214 2.312535423847214 2.312535423847214 2.312535423847214 2.312535423847214
          2.312535423847214 2.312535423847214 2.312535423847214 2.312535423847214 2.312535423847214 2.312535423847214
          2.312535423847214 2.312535423847214 2.312535423847214 2.312535423847214 2.312535423847214 2.312535423847214
          2.312535423847214 2.312535423847214 1.8564002374546893 1.4959088215150074 1.3387803089249313 1.2784517339731156
          1.2760502622929226 1.2941629993035455 1.307304400230577 1.305272194423261 1.2789495514386682 1.2284052744544998
          1.1580276088497947 1.0727004044063135 0.9826930748611501 0.8988984736592234 0.834042082538691 0.7985410223760111
          0.7963686975629651 0.8261530042892613 0.8829340525015957 0.9600396345101159 1.050583435579989 1.1470193290389832
          1.246781662881675 1.3487861144522888 1.450115628828251 1.545882243815797 1.631914200089081 1.7065294291593396
          1.7704770906619471 1.8343515643351425 1.912556337856178 2.0255092315359073 2.193551254670604 2.312535423847214
          2.312535423847214 2.312535423847214 2.312535423847214 2.312535423847214 2.312535423847214 2.312535423847214
          2.312535423847214 2.312535423847214 2.312535423847214 2.312535423847214 2.312535423847214 2.312535423847214
          2.312535423847214 2.312535423847214 2.312535423847214 2.312535423847214 1.9053373710971147 1.3987572244298985
          1.1632457179738012 1.1289252456846717 1.1636469884827314 1.2037562230736167 1.2303333636620866 1.2369196264811093
          1.2155148389739137 1.1646993857908305 1.090268420039823 0.9993329378380106 0.9000198289284377 0.8023251020862725
          0.7181960792643919 0.6579144936619186 0.6288478882918453 0.6324843736875834 0.6683503623369367 0.7325013952260436
          0.8190570913869769 0.9196202841678474 1.025874481832355 1.133408141000127 1.2368732760943042 1.3354639499546646
          1.4284056724049727 1.512827792400866 1.5877101351931326 1.652355711428119 1.7129923506606843 1.7800318724807054
          1.8791474273055195 2.033529522885599 2.2705333438498867 2.312535423847214 2.312535423847214 2.312535423847214
          2.312535423847214 2.312535423847214 2.312535423847214 2.312535423847214 2.312535423847214 2.312535423847214
          2.312535423847214 2.312535423847214 2.312535423847214 2.312535423847214 2.312535423847214 2.312535423847214
          1.939971312626842 1.4266927668057605 1.1486714607712047 1.0883115285087084 1.11977873838606 1.1613400739078676
          1.1891201470569892 1.196045070401949 1.1758760871259029 1.1238828246172021 1.0447376476833894 0.9453909051352761
          0.8345460900936612 0.7218039581234559 0.6159808649796898 0.5268164822575855 0.4636468581175298 0.4333132192632757
          0.4378067031885229 0.47876040687458193 0.5532606461492293 0.6534520894867162 0.7703560675355874 0.8940299945187499
          1.0162432204160794 1.1309597825182374 1.235696674135289 1.3308038452431812 1.415790816894625 1.48969120075212
          1.555226218213869 1.6125981274658967 1.6684778076120732 1.7449219449774975 1.8710582488274847 2.0934312531385024
          2.312535423847214 2.312535423847214 2.312535423847214 2.312535423847214 2.312535423847214 2.312535423847214
          2.312535423847214 2.312535423847214 2.312535423847214 2.312535423847214 2.312535423847214 2.312535423847214
          2.312535423847214 2.312535423847214 1.9810101494172019 1.4771035556919614 1.2511725083476866 1.1769713214789528
          1.1641839813968442 1.1748619300526726 1.1856191681704122 1.181649280264268 1.156028756683897 1.1039598995913305
          1.0211817845804965 0.9126975600972839 0.7876307823606767 0.6556630944151751 0.5256221230062514 0.4055522292519723
          0.30432532659414596 0.23119656004633465 0.19385142297155405 0.19829885311308248 0.24598698198723307 0.3342595610760029
          0.455864604233444 0.5987890248385812 0.7494659002662145 0.8953126732906851 1.0282808472553797 1.1451999760501113
          1.2455209527278477 1.3317536592896149 1.405047353658487 1.4682997687705135 1.5236207780520095 1.5751887410258223
          1.6317931068775646 1.7303148208364487 1.941762868555079 2.312535423847214 2.312535423847214 2.312535423847214
          2.312535423847214 2.312535423847214 2.312535423847214 2.312535423847214 2.312535423847214 2.312535423847214
          2.312535423847214 2.312535423847214 2.312535423847214 2.312535423847214 2.132342635619074 1.5999751350356144
          1.407226486147363 1.3507537220494559 1.2978060645187728 1.2554212856314875 1.228406644014434 1.20196391198248
          1.1613608823390127 1.1026759639762305 1.0192160321943609 0.9054064389964427 0.7664880983296781 0.6114251076901681
          0.45246966566385294 0.29931125800508235 0.15916348531179836 0.04034458707359346 -0.04708698734234115 -0.09142224785470003
          -0.08606355547504582 -0.028412097324728824 0.07873520500407913 0.22803427948815141 0.40648557653126377 0.5952383674442885
          0.7740967456259604 0.9313836277419484 1.062454012965015 1.1695968131447214 1.255306046260757 1.32445995838841
          1.3842959452520236 1.4404913103112915 1.492505979769231 1.541681237176142 1.625590731891569 1.8239313529793528
          2.2118632502005084 2.312535423847214 2.312535423847214 2.312535423847214 2.312535423847214 2.312535423847214
          2.312535423847214 2.312535423847214 2.312535423847214 2.312535423847214 2.312535423847214 2.312535423847214
          2.312535423847214 1.7935952508516004 1.5379330204043677 1.4942270920997915 1.4506087428174317 1.3844645916462244
          1.3205543487052727 1.262528577323095 1.2002659912355984 1.125442459175048 1.034856235492544 0.9205534548971782
          0.7749905757450725 0.6015290939572645 0.41262096197892845 0.2224376504609008 0.04222634557350879 -0.12109370002557175
          -0.2582691000778972 -0.35622267258796225 -0.40410455326500905 -0.39438014011799044 -0.324508823046291 -0.19535512782328984
          -0.014876745209583426 0.2043389276197951 0.43703911269915935 0.6555216364155825 0.8419169641366202 0.9907566772991352
          1.1038555440478115 1.1885834710707128 1.253382305976264 1.3084956657139013 1.3646607376201714 1.4207984279275743
          1.4739872327972119 1.5550063660723836 1.7395889773908437 2.0980460991862686 2.312535423847214 2.312535423847214
          2.312535423847214 2.312535423847214 2.312535423847214 2.312535423847214 2.312535423847214 2.312535423847214
          2.312535423847214 2.312535423847214 2.312535423847214 2.0538184289160735 1.6700962033758193 1.5636590170776514
          1.552143125066615 1.5090286094282006 1.4389745264279796 1.3601593708520834 1.2762594257072877 1.182736297579599
          1.0753622257136595 0.9535928303555503 0.8075894719187454 0.6276022084997464 0.41629137296410257 0.19154837514217368
          -0.029510890119161096 -0.23497527508012692 -0.4170040843707403 -0.5647609040520908 -0.6654750137221824 -0.7112644205093516
          -0.6938873220652575 -0.6106485745078254 -0.4615306204950771 -0.2507512203057211 0.007560060915036034 0.28435698598828313
          0.5450480349554728 0.7639211503841113 0.9311138330385494 1.0522582722105138 1.1392899035766773 1.2011177812837852
          1.2504427434534482 1.30188196858706 1.3606986845173845 1.4250723859544525 1.5141767515180518 1.685642158806366
          2.001008248071892 2.312535423847214 2.312535423847214 2.312535423847214 2.312535423847214 2.312535423847214
          2.312535423847214 2.312535423847214 2.312535423847214 2.312535423847214 2.312535423847214 2.312535423847214
          1.8743888900477046 1.6324345271752836 1.5834725300664185 1.583972621024835 1.5477999172246406 1.4770102510851022
          1.384566496196698 1.2775496138912832 1.15485770314549 1.016349753473971 0.8622584378062819 0.6817992771569907
          0.4642563947837361 0.21526547074653823 -0.04144605429288166 -0.28695716967400586 -0.5107220382294649 -0.7016424215385969
          -0.8501838818420107 -0.946056925569161 -0.9821114623124076 -0.9554288528800952 -0.8628621007337998 -0.7000655733445998
          -0.46446729110128554 -0.16863045087652845 0.15263521050014184 0.45394438932211223 0.7036699894743782 0.8893033068839248
          1.0201932766760997 1.1102031942336776 1.1704890727688313 1.214377530805989 1.2595249851880992 1.3181047734174645
          1.3940350281176015 1.4935441943968406 1.650057748181804 1.914234451928328 2.294394221882235 2.312535423847214
          2.312535423847214 2.312535423847214 2.312535423847214 2.312535423847214 2.312535423847214 2.312535423847214
          2.312535423847214 2.312535423847214 2.1855333737038802 1.8011173636666895 1.6213090849330123 1.597937710083154
          1.6091278302449346 1.579436758791108 1.5080832064518033 1.4046398181933972 1.2767631680228921 1.126354936613061
          0.9563592747401276 0.7686231466858453 0.5503750570656633 0.2940866146749093 0.011976959016278859 -0.269652439171247
          -0.5315067185955976 -0.7620612692949098 -0.9529196427920297 -1.0938123380701965 -1.1764522464150684 -1.2008110991116143
          -1.1672098569457914 -1.0707400469108146 -0.8989536970349087 -0.6419313301911171 -0.30798946381119274 0.057301646301128197
          0.3958500640820778 0.6696832375875695 0.8713681223730577 1.0092811756626205 1.1007908369372141 1.1602732504529085
          1.2012135750192983 1.2413588548009382 1.2981203290414782 1.381168683352818 1.4916084294824747 1.6400204497029047
          1.8485440278334255 2.148859222834898 2.312535423847214 2.312535423847214 2.312535423847214 2.312535423847214
          2.312535423847214 2.312535423847214 2.312535423847214 2.312535423847214 2.312535423847214 2.096026118430031
          1.771750735503585 1.6166912867110368 1.6104283209875139 1.6328721940596134 1.6107108801260996 1.5408928134978688
          1.4299766090397696 1.2844892829192778 1.1076541746778685 0.9057834428107365 0.6816251000176397 0.4255679791815308
          0.13412470493940776 -0.17561304822058457 -0.4744138617994918 -0.7452865829822837 -0.975716443879047 -1.1587039256885998
          -1.284090025462459 -1.3513108523194772 -1.3652276417808602 -1.3261485318489281 -1.2250022071590916 -1.0450274021372197
          -0.7651377183031592 -0.39370478783846247 0.012571031693312076 0.3803793078227656 0.6716490199077328 0.8806635919905766
          1.0191307597376749 1.1085445607576205 1.1660495266885123 1.2061773395467563 1.2452437839503785 1.3018598964878363
          1.3898755009156485 1.5091624248993196 1.6500035374734145 1.8125850232970624 2.024883680775117 2.312535423847214
          2.312535423847214 2.312535423847214 2.312535423847214 2.312535423847214 2.312535423847214 2.312535423847214
          2.312535423847214 2.312535423847214 2.053010684480831 1.7507776440810023 1.6082690372438064 1.6219661108642167
          1.657749061515122 1.643952543464069 1.5789359895897677 1.4663540697334578 1.3098569944359861 1.1101415976034894
          0.8759320464906628 0.6147198138721972 0.3217070469018701 -0.00039299839447883185 -0.3319687488321781 -0.6450270688589852
          -0.9209858343334897 -1.146525275082248 -1.3143091916343967 -1.4211243408196994 -1.472507417824984 -1.4757481123870182
          -1.4287422791448863 -1.3191847519659683 -1.124118719103464 -0.817623986075178 -0.40894849725709564 0.028817317138543814
          0.4146343318195038 0.7106949736476745 0.9164094454389933 1.0475471709322621 1.1293830264310698 1.1828689618781023
          1.2235539367211141 1.2644242406287602 1.3221952043851428 1.4127159729680243 1.534613671741037 1.6675695011165121
          1.7971383320724537 1.9344382463450234 2.138768605112435 2.312535423847214 2.312535423847214 2.312535423847214
          2.312535423847214 2.312535423847214 2.312535423847214 2.312535423847214 2.312535423847214 2.0246119890203422
          1.734745773749266 1.6027269851605448 1.6310788194562365 1.681488546956277 1.6786966744113272 1.6215367284559483
          1.514343554693743 1.3547057522931019 1.138774500100849 0.8742128644019277 0.5770606191981024 0.24849768014996748
          -0.10293156284288293 -0.45516544785543117 -0.7796455022204164 -1.054944626566286 -1.2698112233434298 -1.4194711675154883
          -1.5070989314624608 -1.543685210732038 -1.5349054675817317 -1.475315865298307 -1.3492958612757773 -1.127810789069433
          -0.7857457170780008 -0.34164666226020546 0.11310173459127786 0.49680628694516565 0.7818080259501152 0.9727320135175873
          1.088609291573414 1.1580963853233437 1.2063213344308688 1.2470751193355327 1.2901513498722268 1.3494511432415286
          1.438738989082961 1.5593300315955805 1.6872385619605432 1.7998162092986445 1.887320332506039 2.003094907184227
          2.312535423847214 2.312535423847214 2.312535423847214 2.312535423847214 2.312535423847214 2.312535423847214
          2.312535423847214 2.312535423847214 2.011011697273477 1.735128178253713 1.6071311354911144 1.6386871415452342
          1.7009320631278435 1.7113065511590195 1.664592770355295 1.566747336623065 1.4126545895948504 1.1889367833834839
          0.9017532906950229 0.5713646409663066 0.20819369143462232 -0.17192404449853893 -0.5421730825877984 -0.8718360290986281
          -1.1425622111219038 -1.3443978318325776 -1.4760879629882269 -1.5473298538807931 -1.569321842728918 -1.5445555237762016
          -1.4650315553135624 -1.3104129069748085 -1.048800597267151 -0.6615373550757786 -0.19453958050912643 0.25510659617511505
          0.6162239394265511 0.8755382493396395 1.0418829681684785 1.1367202427681606 1.1917824145711984 1.2322959591296638
          1.271555419099628 1.3148805232662322 1.3728640092091418 1.4619545657043085 1.580984167363408 1.707925676720837
          1.8119073796803822 1.8650981415494516 1.9275170032043702 2.2558289666886733 2.312535423847214 2.312535423847214
          2.312535423847214 2.312535423847214 2.312535423847214 2.312535423847214 2.310010780894334 2.010741973689229
          1.751751104570815 1.6221169071537747 1.6437901027068982 1.7094885433750326 1.7342724129008737 1.7011546007501113
          1.6159656102327262 1.4718148540586737 1.2515010857289557 0.950839392029551 0.5926654284005637 0.20073753057757313
          -0.20201198196736442 -0.5857791734819943 -0.9194456331552304 -1.1845702513379845 -1.3728095585847782 -1.4886429233635714
          -1.5444808097274862 -1.5493229069738215 -1.5027072604870186 -1.3928034234488758 -1.1960685924112446 -0.8812761427487711
          -0.4538609661105905 0.01566135004150463 0.4319838993599643 0.7544152568500677 0.9793515290821221 1.1167684302201304
          1.189066279859328 1.227251386528885 1.2583904631241176 1.2934316068793819 1.3351669237241222 1.393579215644736
          1.4835160029399632 1.607661950757724 1.7364551380993682 1.8251901028051896 1.8519522450023982 1.9087719986797487
          2.261128137693472 2.312535423847214 2.312535423847214 2.312535423847214 2.312535423847214 2.312535423847214
          2.312535423847214 2.297479769564384 2.0249476068687398 1.7892606695137323 1.6534570964497393 1.650987252462359
          1.7101468649898537 1.7453731625230746 1.726791222416596 1.6564585843803041 1.5270349739690066 1.3169085828530733
          1.0139833117095831 0.6396941037302408 0.22822404104011956 -0.19095801941024618 -0.5861720164129622 -0.9222217865956622
          -1.1804972661263018 -1.3554128902195226 -1.4559830431884422 -1.4953733816079349 -1.479633063046678 -1.4051212776770792
          -1.2546788283574033 -1.0042675324579602 -0.6368491846965968 -0.19054162558209495 0.24934030635631488 0.6174424036554734
          0.8970475044000232 1.0860657469258292 1.1930999911686822 1.2408132744738267 1.2618947384882495 1.284146903135815
          1.315501794564071 1.3569646726837135 1.4190459711564685 1.5171861174149082 1.6497462487264276 1.7741000317175333
          1.8463551227993793 1.8548214507307055 1.9406821368848217 2.300066287631779 2.312535423847214 2.312535423847214
          2.312535423847214 2.312535423847214 2.312535423847214 2.312535423847214 2.303739047141522 2.0594977820116975
          1.8460142857680912 1.7052540756296881 1.6728593649899361 1.7122907955709536 1.7493525767255627 1.7425910608686652
          1.68789890015891 1.5753362500477828 1.3812878295159357 1.0858267719985626 0.7068601095674263 0.28598302007334553
          -0.1423456015728277 -0.5423976650595435 -0.8774281857497732 -1.1260238637914428 -1.2875802202880477 -1.3741193588925031
          -1.3964695054533474 -1.3570717256114693 -1.248145218327113 -1.0510052146138606 -0.7452566811896093 -0.3477910633435128
          0.08273068800206501 0.476043365036271 0.7972416890874344 1.0363741720331376 1.1884782691229818 1.2631696716033627