<VTKFile type="PolyData" version="1.0" byte_order="LittleEndian" header_type="UInt64">
  <PolyData>
    <Piece NumberOfPoints="2601" NumberOfVerts="0" NumberOfLines="0" NumberOfStrips="0" NumberOfPolys="2500">
      <PointData>
        <DataArray type="Float32" Name="zvalue" NumberOfComponents="1" format="ascii" RangeMin="-1.5402103989560845" RangeMax="2.312535423847214">
          2.312535423847214 2.312535423847214 2.312535423847214 2.312535423847214 2.312535423847214 2.312535423847214
          2.312535423847214 2.312535423847214 2.312535423847214 2.312535423847214 2.312535423847214 2.312535423847214
          2.312535423847214 2.312535423847214 2.312535423847214 2.312535423847214 2.312535423847214 2.312535423847214
          2.312535423847214 2.312535423847214 2.312535423847214 2.312535423847214 2.312535423847214 2.312535423847214
          2.312535423847214 2.312535423847214 2.312535423847214 2.312535423847214 2.312535423847214 2.312535423847214
          2.312535423847214 2.312535423847214 2.312535423847214 2.312535423847214 2.312535423847214 2.312535423847214
          2.312535423847214 2.312535423847214 2.312535423847214 2.312535423847214 2.312535423847214 2.312535423847214
          2.312535423847214 2.312535423847214 2.312535423847214 2.312535423847214 2.312535423847214 2.312535423847214
          2.312535423847214 2.312535423847214 2.312535423847214 2.312535423847214 2.312535423847214 2.312535423847214
          2.312535423847214 2.312535423847214 2.312535423847214 2.312535423847214 2.312535423847214 2.312535423847214
          2.312535423847214 2.312535423847214 2.312535423847214 2.312535423847214 2.312535423847214 2.312535423847214
          2.312535423847214 2.312535423847214 2.312535423847214 2.312535423847214 2.312535423847214 2.312535423847214
          2.312535423847214 2.312535423847214 2.312535423847214 2.312535423847214 2.312535423847214 2.312535423847214
          2.312535423847214 2.312535423847214 2.312535423847214 2.312535423847214 2.312535423847214 2.312535423847214
          2.312535423847214 2.312535423847214 2.312535423847214 2.312535423847214 2.312535423847214 2.312535423847214
          2.312535423847214 2.312535423847214 2.312535423847214 2.312535423847214 2.312535423847214 2.312535423847214
          2.312535423847214 2.312535423847214 2.312535423847214 2.312535423847214 2.312535423847214 2.312535423847214
          2.312535423847214 2.312535423847214 2.312535423847214 2.312535423847214 2.312535423847214 2.312535423847214
          2.312535423847214 2.312535423847214 2.312535423847214 2.312535423847214 2.312535423847214 2.312535423847214
          2.312535423847214 2.312535423847214 2.312535423847214 2.312535423847214 2.312535423847214 2.312535423847214
          2.312535423847214 2.312535423847214 2.312535423847214 2.312535423847214 2.312535423847214 2.312535423847214
          2.312535423847214 2.312535423847214 2.312535423847214 2.312535423847214 2.312535423847214 2.312535423847214
          2.312535423847214 2.312535423847214 2.312535423847214 2.312535423847214 2.312535423847214 2.312535423847214
          2.312535423847214 2.312535423847214 2.312535423847214 2.312535423847214 2.312535423847214 2.312535423847214
          2.312535423847214 2.312535423847214 2.312535423847214 2.312535423847214 2.312535423847214 2.312535423847214
          2.312535423847214 2.312535423847214 2.312535423847214 2.312535423847214 2.312535423847214 2.312535423847214
          2.312535423847214 2.312535423847214 2.312535423847214 2.312535423847214 2.312535423847214 2.312535423847214
          2.312535423847214 2.312535423847214 2.312535423847214 2.312535423847214 2.312535423847214 2.312535423847214
          2.312535423847214 2.312535423847214 2.312535423847214 2.312535423847214 2.312535423847214 2.312535423847214
          2.312535423847214 2.312535423847214 2.312535423847214 2.312535423847214 2.312535423847214 2.312535423847214
          2.312535423847214 2.312535423847214 2.312535423847214 2.312535423847214 2.312535423847214 2.312535423847214
          2.312535423847214 2.312535423847214 2.312535423847214 2.312535423847214 2.312535423847214 2.312535423847214
          2.312535423847214 2.312535423847214 2.312535423847214 2.312535423847214 2.312535423847214 2.312535423847214
          2.312535423847214 2.312535423847214 2.312535423847214 2.312535423847214 2.312535423847214 2.312535423847214
          2.312535423847214 2.312535423847214 2.312535423847214 2.312535423847214 2.312535423847214 2.312535423847214
          2.312535423847214 2.312535423847214 2.312535423847214 2.312535423847214 2.312535423847214 2.312535423847214
          2.312535423847214 2.312535423847214 2.312535423847214 2.312535423847214 2.312535423847214 2.312535423847214
          2.312535423847214 2.312535423847214 2.312535423847214 2.312535423847214 2.312535423847214 2.312535423847214
          2.312535423847214 2.312535423847214 2.312535423847214 2.312535423847214 2.312535423847214 2.312535423847214
          2.312535423847214 2.312535423847214 2.312535423847214 2.312535423847214 2.312535423847214 2.312535423847214
          2.312535423847214 2.312535423847214 2.312535423847214 2.312535423847214 2.312535423847214 2.312535423847214
          2.312535423847214 2.312535423847214 2.312535423847214 2.312535423847214 2.312535423847214 2.312535423847214
          2.312535423847214 2.312535423847214 2.312535423847214 2.312535423847214 2.312535423847214 2.312535423847214
          2.312535423847214 2.312535423847214 2.312535423847214 2.312535423847214 2.312535423847214 2.312535423847214
          2.312535423847214 2.312535423847214 2.312535423847214 2.312535423847214 2.312535423847214 2.312535423847214
          2.312535423847214 2.312535423847214 2.312535423847214 2.312535423847214 2.312535423847214 2.312535423847214
          2.312535423847214 2.312535423847214 2.312535423847214 2.312535423847214 2.312535423847214 2.312535423847214
          2.312535423847214 2.312535423847214 2.312535423847214 2.312535423847214 2.312535423847214 2.312535423847214
          2.312535423847214 2.312535423847214 2.312535423847214 2.312535423847214 2.312535423847214 2.312535423847214
          2.312535423847214 2.312535423847214 2.312535423847214 2.312535423847214 2.312535423847214 2.312535423847214
          2.312535423847214 2.312535423847214 2.312535423847214 2.312535423847214 2.312535423847214 2.312535423847214
          2.312535423847214 2.312535423847214 2.312535423847214 2.312535423847214 2.312535423847214 2.312535423847214
          2.312535423847214 2.312535423847214 2.312535423847214 2.312535423847214 2.312535423847214 2.312535423847214
          2.312535423847214 2.312535423847214 2.312535423847214 2.312535423847214 2.312535423847214 2.312535423847214
          2.312535423847214 2.312535423847214 2.312535423847214 2.312535423847214 2.312535423847214 2.312535423847214
          2.312535423847214 2.312535423847214 2.312535423847214 2.312535423847214 2.312535423847214 2.312535423847214
          2.312535423847214 2.312535423847214 2.312535423847214 2.312535423847214 2.312535423847214 2.312535423847214
          2.312535423847214 2.312535423847214 2.312535423847214 2.312535423847214 2.312535423847214 2.312535423847214
          2.312535423847214 2.312535423847214 2.312535423847214 2.312535423847214 2.312535423847214 2.312535423847214
          2.312535423847214 2.312535423847214 2.312535423847214 2.312535423847214 2.312535423847214 2.312535423847214
          2.312535423847214 2.312535423847214 2.312535423847214 2.312535423847214 2.312535423847214 2.312535423847214
          2.312535423847214 2.312535423847214 2.312535423847214 2.312535423847214 2.312535423847214 2.312535423847214
          2.312535423847214 2.312535423847214 2.312535423847214 2.312535423847214 2.312535423847214 2.312535423847214
          2.312535423847214 2.312535423847214 2.312535423847214 2.312535423847214 2.312535423847214 2.312535423847214
          2.312535423847214 2.312535423847214 2.312535423847214 2.312535423847214 2.312535423847214 2.312535423847214
          2.312535423847214 2.312535423847214 2.312535423847214 2.312535423847214 2.312535423847214 2.312535423847214
          2.312535423847214 2.312535423847214 2.312535423847214 2.312535423847214 2.312535423847214 2.312535423847214
          2.312535423847214 2.312535423847214 2.312535423847214 2.312535423847214 2.312535423847214 2.312535423847214
          2.312535423847214 2.312535423847214 2.312535423847214 2.312535423847214 2.312535423847214 2.312535423847214
          2.312535423847214 2.312535423847214 2.312535423847214 2.312535423847214 2.312535423847214 2.312535423847214
          2.312535423847214 2.312535423847214 2.312535423847214 2.312535423847214 2.312535423847214 2.312535423847214
          2.312535423847214 2.312535423847214 2.312535423847214 2.312535423847214 2.312535423847214 2.312535423847214
          2.312535423847214 2.312535423847214 2.312535423847214 2.312535423847214 2.312535423847214 2.312535423847214
          2.312535423847214 2.312535423847214 2.312535423847214 2.312535423847214 2.312535423847214 2.312535423847214
          2.312535423847214 2.312535423847214 2.312535423847214 2.312535423847214 2.312535423847214 2.312535423847214
          2.312535423847214 2.312535423847214 2.312535423847214 2.312535423847214 2.312535423847214 2.312535423847214
          2.312535423847214 2.312535423847214 2.312535423847214 2.312535423847214 2.312535423847214 2.312535423847214
          2.312535423847214 2.312535423847214 2.312535423847214 2.312535423847214 2.312535423847214 2.312535423847214
          2.312535423847214 2.312535423847214 2.312535423847214 2.312535423847214 2.312535423847214 2.312535423847214
          2.312535423847214 2.312535423847214 2.312535423847214 2.312535423847214 2.312535423847214 2.312535423847214
          2.312535423847214 2.312535423847214 2.312535423847214 2.312535423847214 2.312535423847214 2.312535423847214
          2.312535423847214 2.312535423847214 2.312535423847214 2.312535423847214 2.312535423847214 2.312535423847214
          2.312535423847214 2.312535423847214 2.312535423847214 2.312535423847214 2.312535423847214 2.312535423847214
          2.312535423847214 2.312535423847214 2.312535423847214 2.312535423847214 2.312535423847214 2.312535423847214
          2.312535423847214 2.312535423847214 2.312535423847214 2.312535423847214 2.312535423847214 2.312535423847214
          2.312535423847214 2.312535423847214 2.312535423847214 2.312535423847214 2.312535423847214 2.312535423847214
          2.312535423847214 2.312535423847214 2.312535423847214 2.312535423847214 2.312535423847214 2.312535423847214
          2.312535423847214 2.312535423847214 2.312535423847214 2.312535423847214 2.312535423847214 2.312535423847214
          2.312535423847214 2.312535423847214 2.312535423847214 2.312535423847214 2.312535423847214 2.2272597834450067
          2.1263621435801783 2.1637441994630984 2.2911076069513743 2.312535423847214 2.312535423847214 2.312535423847214
          2.312535423847214 2.312535423847214 2.312535423847214 2.312535423847214 2.312535423847214 2.312535423847214
          2.312535423847214 2.312535423847214 2.312535423847214 2.312535423847214 2.312535423847214 2.312535423847214
          2.312535423847214 2.312535423847214 2.312535423847214 2.312535423847214 2.312535423847214 2.312535423847214
          2.312535423847214 2.312535423847214 2.312535423847214 2.312535423847214 2.312535423847214 2.312535423847214
          2.312535423847214 2.312535423847214 2.312535423847214 2.312535423847214 2.312535423847214 2.312535423847214
          2.312535423847214 2.312535423847214 2.312535423847214 2.312535423847214 2.312535423847214 2.312535423847214
          2.312535423847214 2.312535423847214 2.312535423847214 2.312535423847214 2.312535423847214 2.312535423847214
          2.1337513422402328 1.9059019507809778 1.7925199383090848 1.8114189374937049 1.910074228502695 2.0435749055193653
          2.192526963379324 2.312535423847214 2.312535423847214 2.312535423847214 2.312535423847214 2.312535423847214
          2.312535423847214 2.312535423847214 2.312535423847214 2.312535423847214 2.312535423847214 2.312535423847214
          2.312535423847214 2.312535423847214 2.312535423847214 2.312535423847214 2.312535423847214 2.312535423847214
          2.312535423847214 2.312535423847214 2.312535423847214 2.312535423847214 2.312535423847214 2.312535423847214
          2.312535423847214 2.312535423847214 2.312535423847214 2.312535423847214 2.312535423847214 2.312535423847214
          2.312535423847214 2.312535423847214 2.312535423847214 2.312535423847214 2.312535423847214 2.312535423847214
          2.312535423847214 2.312535423847214 2.312535423847214 2.312535423847214 2.312535423847214 2.312535423847214
          2.312535423847214 2.2237013341564658 1.9700164409670506 1.750182401843096 1.6200371056609044 1.6080820997533956
          1.6769821474991766 1.7780166696423596 1.8911922349093055 2.0089883173935026 2.1315243790364327 2.2651051364226182
          2.312535423847214 2.312535423847214 2.312535423847214 2.312535423847214 2.312535423847214 2.312535423847214
          2.312535423847214 2.312535423847214 2.312535423847214 2.312535423847214 2.312535423847214 2.312535423847214
          2.312535423847214 2.312535423847214 2.312535423847214 2.312535423847214 2.312535423847214 2.312535423847214
          2.312535423847214 2.312535423847214 2.312535423847214 2.312535423847214 2.312535423847214 2.312535423847214
          2.312535423847214 2.312535423847214 2.312535423847214 2.312535423847214 2.312535423847214 2.312535423847214
          2.312535423847214 2.312535423847214 2.312535423847214 2.312535423847214 2.312535423847214 2.312535423847214
          2.312535423847214 2.312535423847214 2.312535423847214 2.118266434456983 1.8951100642866046 1.6954717708051348
          1.5524611813004188 1.496273807264684 1.521905264552248 1.5924130872951499 1.6806400666658476 1.7758337175891594
          1.8716670700953528 1.9656325798219394 2.0639504243781928 2.178569994347332 2.312535423847214 2.312535423847214
          2.312535423847214 2.312535423847214 2.312535423847214 2.312535423847214 2.312535423847214 2.312535423847214
          2.312535423847214 2.312535423847214 2.312535423847214 2.312535423847214 2.312535423847214 2.312535423847214
          2.312535423847214 2.312535423847214 2.312535423847214 2.312535423847214 2.312535423847214 2.312535423847214
          2.312535423847214 2.312535423847214 2.312535423847214 2.312535423847214 2.312535423847214 2.312535423847214
          2.312535423847214 2.312535423847214 2.312535423847214 2.312535423847214 2.312535423847214 2.312535423847214
          2.312535423847214 2.312535423847214 2.312535423847214 2.312535423847214 2.2239762601838042 2.04301187557063
          1.8590263768151103 1.6799692326531594 1.528345864035612 1.4291560246009225 1.3944467455131941 1.4135327605797119
          1.4682895449335152 1.5448397593753522 1.6342933484736644 1.726518051485458 1.8130685531442587 1.8952639169604215
          1.9823189644879715 2.093689249648866 2.243381466940303 2.312535423847214 2.312535423847214 2.312535423847214
          2.312535423847214 2.312535423847214 2.312535423847214 2.312535423847214 2.312535423847214 2.312535423847214
          2.312535423847214 2.312535423847214 2.312535423847214 2.312535423847214 2.312535423847214 2.312535423847214
          2.312535423847214 2.312535423847214 2.312535423847214 2.312535423847214 2.312535423847214 2.312535423847214
          2.312535423847214 2.312535423847214 2.312535423847214 2.312535423847214 2.312535423847214 2.312535423847214
          2.312535423847214 2.312535423847214 2.312535423847214 2.312535423847214 2.312535423847214 2.309254994154622
          2.1192606696058487 1.971688272030243 1.8242482654100483 1.6707552574976687 1.5184995748749348 1.3883914018962176
          1.2961743716500798 1.2442340838795214 1.2322755509257735 1.2597538053610315 1.3250282929357289 1.418188168078037
          1.5254485787371461 1.6287768271368537 1.722421932496282 1.807207090637601 1.8988314684747032 2.0129253272428134
          2.1698931355080204 2.312535423847214 2.312535423847214 2.312535423847214 2.312535423847214 2.312535423847214
          2.312535423847214 2.312535423847214 2.312535423847214 2.312535423847214 2.312535423847214 2.312535423847214
          2.312535423847214 2.312535423847214 2.312535423847214 2.312535423847214 2.312535423847214 2.312535423847214
          2.312535423847214 2.312535423847214 2.312535423847214 2.312535423847214 2.312535423847214 2.312535423847214
          2.312535423847214 2.312535423847214 2.312535423847214 2.312535423847214 2.312535423847214 2.312535423847214
          2.312535423847214 2.312535423847214 2.0614891821606287 1.9080354572924587 1.780780026246251 1.6487826907434835
          1.5067388053587227 1.363125960055095 1.2282371096579603 1.1142308167988368 1.0263269780858932 0.9739976816150149
          0.9678082843506749 1.0180021506200188 1.1171020132455476 1.2464079940903194 1.383704688636725 1.5107873256135746
          1.6225809083539176 1.7267156395082734 1.8336131771253523 1.960519997624924 2.1253877982283185 2.312535423847214
          2.312535423847214 2.312535423847214 2.312535423847214 2.312535423847214 2.312535423847214 2.312535423847214
          2.312535423847214 2.312535423847214 2.312535423847214 2.312535423847214 2.312535423847214 2.312535423847214
          2.312535423847214 2.312535423847214 2.312535423847214 2.312535423847214 2.312535423847214 2.312535423847214
          2.312535423847214 2.312535423847214 2.312535423847214 2.312535423847214 2.312535423847214 2.312535423847214
          2.312535423847214 2.312535423847214 2.312535423847214 2.312535423847214 2.0951000225392837 1.8869065407768943
          1.7494612452308897 1.6227037934283144 1.488281670479105 1.343393556711585 1.187425764679648 1.0281654557994344
          0.8773620160488833 0.7459855390408513 0.6524095138176405 0.6139372225122883 0.646661688946968 0.749016982214485
          0.899760562239666 1.0724943562168452 1.2458355353147241 1.403824611065162 1.5455682872948273 1.6770501120182337
          1.8069598343996387 1.9448362132176014 2.112323572928501 2.312535423847214 2.312535423847214 2.312535423847214
          2.312535423847214 2.312535423847214 2.312535423847214 2.312535423847214 2.312535423847214 2.312535423847214
          2.312535423847214 2.312535423847214 2.312535423847214 2.312535423847214 2.312535423847214 2.312535423847214
          2.312535423847214 2.312535423847214 2.312535423847214 2.312535423847214 2.312535423847214 2.312535423847214
          2.312535423847214 2.312535423847214 2.312535423847214 2.312535423847214 2.312535423847214 2.312535423847214
          2.241811892782371 1.9489331204139666 1.7649038704060775 1.6212922038917648 1.4810952779849451 1.3334174575037603
          1.1698185318073313 0.9865410168391692 0.7907144510961662 0.5945927800487477 0.41612796577019967 0.2812791771259024
          0.2127145727347443 0.22767518365121878 0.3290174659402588 0.4980849052844682 0.7043712160597103 0.9236466682531914
          1.134466991450081 1.3249079127535903 1.496996115644129 1.6520754695219728 1.7970876596839938 1.9408843015449095
          2.1155026885768287 2.312535423847214 2.312535423847214 2.312535423847214 2.312535423847214 2.312535423847214
          2.312535423847214 2.312535423847214 2.312535423847214 2.312535423847214 2.312535423847214 2.312535423847214
          2.312535423847214 2.312535423847214 2.312535423847214 2.312535423847214 2.312535423847214 2.312535423847214
          2.312535423847214 2.312535423847214 2.312535423847214 2.312535423847214 2.312535423847214 2.312535423847214
          2.312535423847214 2.312535423847214 2.312535423847214 2.118042298995757 1.8628699632408752 1.6824777095927177
          1.5177284616600155 1.3518810603494418 1.1813476713359314 0.9925166978934741 0.7734750305646364 0.5317348776311819
          0.2862112683728719 0.061120242169159525 -0.11039324064977268 -0.20568142784074314 -0.20895976363873636 -0.11526336936529598
          0.06374623996182244 0.29602283457119954 0.5543761845609547 0.8132442382576871 1.0539730478226401 1.2713291366988544
          1.4626483910325017 1.6297372484758585 1.7792356178741833 1.928112234654755 2.139114664858306 2.312535423847214
          2.312535423847214 2.312535423847214 2.312535423847214 2.312535423847214 2.312535423847214 2.312535423847214
          2.312535423847214 2.312535423847214 2.312535423847214 2.312535423847214 2.312535423847214 2.312535423847214
          2.312535423847214 2.312535423847214 2.312535423847214 2.312535423847214 2.312535423847214 2.312535423847214
          2.312535423847214 2.312535423847214 2.312535423847214 2.312535423847214 2.312535423847214 2.312535423847214
          2.045703167755236 1.8113964880253037 1.622795455232009 1.4339971486752385 1.2422253850859137 1.0444716505728506
          0.8232082683079247 0.5631077833776399 0.273366986797985 -0.01862969242246368 -0.28050064014623327 -0.47991246574831925
          -0.5951086282307517 -0.6145515634586621 -0.5343919113930563 -0.3577310357838787 -0.11257650768613736 0.1721855236426546
          0.467618138040794 0.7528264779837703 1.0128439720993776 1.2437977534044085 1.4413783850326825 1.606759444781568
          1.753105727028195 1.9391142270723751 2.256117170287077 2.312535423847214 2.312535423847214 2.312535423847214
          2.312535423847214 2.312535423847214 2.312535423847214 2.312535423847214 2.312535423847214 2.312535423847214
          2.312535423847214 2.312535423847214 2.312535423847214 2.312535423847214 2.312535423847214 2.312535423847214
          2.312535423847214 2.312535423847214 2.312535423847214 2.312535423847214 2.312535423847214 2.312535423847214
          2.312535423847214 2.312535423847214 2.287501198784373 1.9917906585890508 1.7704600673949493 1.5749726145736564
          1.3691579420172357 1.155776566668144 0.9295152958118403 0.6706799565008293 0.36909798251746234 0.038273347744069944
          -0.28982928201215624 -0.5769633832427614 -0.795694632638397 -0.9255693341533632 -0.956767817593153 -0.8905359019303516
          -0.7258129985386668 -0.48086480246705243 -0.1823490510684031 0.13980511957013333 0.4589381930016209 0.7554919884110463
          1.0217042357734656 1.2494487113067287 1.4350532756366576 1.5912705683031236 1.7750979527369368 2.086639371161147
          2.312535423847214 2.312535423847214 2.312535423847214 2.312535423847214 2.312535423847214 2.312535423847214
          2.312535423847214 2.312535423847214 2.312535423847214 2.312535423847214 2.312535423847214 2.312535423847214
          2.312535423847214 2.312535423847214 2.312535423847214 2.312535423847214 2.312535423847214 2.312535423847214
          2.312535423847214 2.312535423847214 2.312535423847214 2.312535423847214 2.312535423847214 2.1918859050997996
          1.9373033243179782 1.7323821601823142 1.5344740240256316 1.3190496641332308 1.0887192156641032 0.8343616498725178
          0.54113593477295 0.20407806217764765 -0.15785152286939702 -0.5087935879458279 -0.8142487501354589 -1.0446256328562378
          -1.1815331008972487 -1.2216302397151932 -1.1657263192633749 -1.015669371363481 -0.7788385570799833 -0.4769415966695824
          -0.1386942416830824 0.2045724709355988 0.5291983046602852 0.820652498491969 1.0740551064290595 1.283854082860965
          1.454274306109282 1.6443856386296263 1.9641287346842164 2.312535423847214 2.312535423847214 2.312535423847214
          2.312535423847214 2.312535423847214 2.312535423847214 2.312535423847214 2.312535423847214 2.312535423847214
          2.312535423847214 2.312535423847214 2.312535423847214 2.312535423847214 2.312535423847214 2.312535423847214
          2.312535423847214 2.312535423847214 2.312535423847214 2.312535423847214 2.312535423847214 2.312535423847214
          2.312535423847214 2.312535423847214 2.0993459261214 1.8818661818985425 1.693295700209795 1.4978206295716476
          1.2791785105840938 1.0351744117621522 0.7581126438379961 0.4388248536875887 0.07730018074528178 -0.3022104835457349
          -0.6701159306290492 -0.9872968215797066 -1.2236437897097472 -1.3618386905303002 -1.4035529161586575 -1.3551249180692422
          -1.218393816526647 -0.9927246038275956 -0.693787998823821 -0.3499072261866627 0.005813515653625627 0.3466334244051454
          0.6573553474231434 0.9301109211139958 1.160822057020985 1.349314216227181 1.5492790497593176 1.8796792761716017
          2.312535423847214 2.312535423847214 2.312535423847214 2.312535423847214 2.312535423847214 2.312535423847214
          2.312535423847214 2.312535423847214 2.312535423847214 2.312535423847214 2.312535423847214 2.312535423847214
          2.312535423847214 2.312535423847214 2.312535423847214 2.312535423847214 2.312535423847214 2.312535423847214
          2.312535423847214 2.312535423847214 2.312535423847214 2.312535423847214 2.2692265140202377 2.023149914424003
          1.8288387861894597 1.65196515525808 1.4632213348750143 1.2472047155144954 0.9930530750213624 0.700357811730889
          0.3684462208184386 -0.0025036239681792177 -0.39227309726763593 -0.7707304104981344 -1.0944858139065037 -1.3311650994573796
          -1.4670380325485501 -1.5075181776888975 -1.4635530410063342 -1.3361455510689908 -1.1229633607025349 -0.8296696761180212
          -0.48891570116735084 -0.1326667334602488 0.2136503075027533 0.5354715951944853 0.8244430783657989 1.0720973702543664
          1.2737227621182419 1.4826742047318662 1.8236050117216154 2.312535423847214 2.312535423847214 2.312535423847214
          2.312535423847214 2.312535423847214 2.312535423847214 2.312535423847214 2.312535423847214 2.312535423847214
          2.312535423847214 2.312535423847214 2.312535423847214 2.312535423847214 2.312535423847214 2.312535423847214
          2.312535423847214 2.312535423847214 2.312535423847214 2.312535423847214 2.312535423847214 2.312535423847214
          2.312535423847214 2.2217840721906854 1.9703404937908375 1.779926720265755 1.6121462782108256 1.4331610830390478
          1.2204335198257084 0.9619743801719864 0.6624707305694963 0.32976488177794117 -0.03764599099618764 -0.4292503972751172
          -0.8106642143531647 -1.1360774879852817 -1.368650174664352 -1.5001524620247815 -1.5402103989560845 -1.4985399426072816
          -1.3765379352648817 -1.1716426872924333 -0.8877902105709152 -0.5565582283499265 -0.20768448439212261 0.13587606169655622
          0.46125779986504056 0.7597860681709019 1.016487981183403 1.2246297412155207 1.4389118927038105 1.7884504951543756
          2.312535423847214 2.312535423847214 2.312535423847214 2.312535423847214 2.312535423847214 2.312535423847214
          2.312535423847214 2.312535423847214 2.312535423847214 2.312535423847214 2.312535423847214 2.312535423847214
          2.312535423847214 2.312535423847214 2.312535423847214 2.312535423847214 2.312535423847214 2.312535423847214
          2.312535423847214 2.312535423847214 2.312535423847214 2.312535423847214 2.203339325915878 1.9326791118716589
          1.739142599174846 1.5800629323593365 1.4113261641846053 1.2025921095629026 0.9419133757482887 0.6427404413405116
          0.3211259338586627 -0.0325048255255745 -0.4153919997992146 -0.7904038991634369 -1.110760172467731 -1.3383107123329816
          -1.4663843716178662 -1.5055836748010498 -1.4648600961804203 -1.3461925215582091 -1.1459903734785333 -0.8733513187262594
          -0.5568662908536162 -0.22314955475973589 0.11052403047696012 0.4328971479331588 0.7327862600626086 0.9903961290690303
          1.1985368652584922 1.414038303224311 1.7632701864992426 2.312535423847214 2.312535423847214 2.312535423847214
          2.312535423847214 2.312535423847214 2.312535423847214 2.312535423847214 2.312535423847214 2.312535423847214
          2.312535423847214 2.312535423847214 2.312535423847214 2.312535423847214 2.312535423847214 2.312535423847214
          2.312535423847214 2.312535423847214 2.312535423847214 2.312535423847214 2.312535423847214 2.312535423847214
          2.312535423847214 2.218920008290202 1.9173415119298731 1.7142604012464275 1.5593257016197684 1.3991916082380862
          1.1949600788370092 0.9365454871816369 0.6434357430178602 0.3419157212596031 0.011642587280037604 -0.3495486427227458
          -0.70862460212843 -1.017783945320659 -1.2404319225840772 -1.3680995860961886 -1.40929681721891 -1.3694365845274117
          -1.2521054451815987 -1.0571692887877273 -0.7981145322491207 -0.500696439830514 -0.18547357201992687 0.1335769940732786
          0.4469041849966601 0.738426674346498 0.9901349167649723 1.1979148631981396 1.426951138061809 1.7802569563054662
          2.312535423847214 2.312535423847214 2.312535423847214 2.312535423847214 2.312535423847214 2.312535423847214
          2.312535423847214 2.312535423847214 2.312535423847214 2.312535423847214 2.312535423847214 2.312535423847214
          2.312535423847214 2.312535423847214 2.312535423847214 2.312535423847214 2.312535423847214 2.312535423847214
          2.312535423847214 2.312535423847214 2.312535423847214 2.312535423847214 2.2779511177118783 1.9399711561478254
          1.7141182377267659 1.55485066989832 1.3978008380731146 1.1999923473211362 0.9476934019936862 0.6671242176856895
          0.3899395105121684 0.09287525679366383 -0.2353559075830189 -0.5665043842301911 -0.855940785897541 -1.0745685836302954
          -1.2055388083891563 -1.250588973867588 -1.2140437498075558 -1.098931215757817 -0.9122685650956484 -0.6696959185596773
          -0.3932099136560494 -0.09928187048591346 0.20287554601870222 0.5008169867935746 0.7768355095012002 1.0176381863275563
          1.237326928069863 1.503784558425336 1.874419697886184 2.312535423847214 2.312535423847214 2.312535423847214
          2.312535423847214 2.312535423847214 2.312535423847214 2.312535423847214 2.312535423847214 2.312535423847214