<VTKFile type="PolyData" version="1.0" byte_order="LittleEndian" header_type="UInt64">
  <PolyData>
    <Piece NumberOfPoints="2601" NumberOfVerts="0" NumberOfLines="0" NumberOfStrips="0" NumberOfPolys="2500">
      <PointData>
        <DataArray type="Float32" Name="zvalue" NumberOfComponents="1" format="ascii" RangeMin="-1.2986944959292952" RangeMax="2.4932054526026954">
          2.4932054526026954 2.4932054526026954 2.4932054526026954 2.4932054526026954 2.4932054526026954 2.4932054526026954
          2.4932054526026954 2.4932054526026954 2.4932054526026954 2.4932054526026954 2.4932054526026954 2.4932054526026954
          2.4932054526026954 2.4932054526026954 2.4932054526026954 2.4932054526026954 2.4932054526026954 2.4932054526026954
          2.4932054526026954 2.4932054526026954 2.4932054526026954 2.4932054526026954 2.4932054526026954 2.4932054526026954
          2.4932054526026954 2.4932054526026954 2.4932054526026954 2.4932054526026954 2.4932054526026954 2.4932054526026954
          2.4932054526026954 2.4932054526026954 2.4932054526026954 2.4932054526026954 2.4932054526026954 2.4932054526026954
          2.4932054526026954 2.4932054526026954 2.4932054526026954 2.4932054526026954 2.4932054526026954 2.4932054526026954
          2.4932054526026954 2.4932054526026954 2.4932054526026954 2.4932054526026954 2.4932054526026954 2.4932054526026954
          2.4932054526026954 2.4932054526026954 2.4932054526026954 2.4932054526026954 2.4932054526026954 2.4932054526026954
          2.4932054526026954 2.4932054526026954 2.4932054526026954 2.4932054526026954 2.4932054526026954 2.4932054526026954
          2.4932054526026954 2.4932054526026954 2.4932054526026954 2.4932054526026954 2.4932054526026954 2.4932054526026954
          2.4932054526026954 2.4932054526026954 2.4932054526026954 2.4932054526026954 2.4932054526026954 2.4932054526026954
          2.4932054526026954 2.4932054526026954 2.4932054526026954 2.4932054526026954 2.4932054526026954 2.4932054526026954
          2.4932054526026954 2.4932054526026954 2.4932054526026954 2.4932054526026954 2.4932054526026954 2.4932054526026954
          2.4932054526026954 2.4932054526026954 2.4932054526026954 2.4932054526026954 2.4932054526026954 2.4932054526026954
          2.4932054526026954 2.4932054526026954 2.4932054526026954 2.4932054526026954 2.4932054526026954 2.4932054526026954
          2.4932054526026954 2.4932054526026954 2.4932054526026954 2.4932054526026954 2.4932054526026954 2.4932054526026954
          2.4932054526026954 2.4932054526026954 2.4932054526026954 2.4932054526026954 2.4932054526026954 2.4932054526026954
          2.4932054526026954 2.4932054526026954 2.4932054526026954 2.4932054526026954 2.4932054526026954 2.4932054526026954
          2.4932054526026954 2.4932054526026954 2.4932054526026954 2.4932054526026954 2.4932054526026954 2.4932054526026954
          2.4932054526026954 2.4932054526026954 2.4932054526026954 2.4932054526026954 2.4932054526026954 2.4932054526026954
          2.4932054526026954 2.4932054526026954 2.4932054526026954 2.4932054526026954 2.4932054526026954 2.4932054526026954
          2.4932054526026954 2.4932054526026954 2.4932054526026954 2.4932054526026954 2.4932054526026954 2.4932054526026954
          2.4932054526026954 2.4932054526026954 2.4932054526026954 2.4932054526026954 2.4932054526026954 2.4932054526026954
          2.4932054526026954 2.4932054526026954 2.4932054526026954 2.4932054526026954 2.4932054526026954 2.4932054526026954
          2.4932054526026954 2.4932054526026954 2.4932054526026954 2.4932054526026954 2.4932054526026954 2.4932054526026954
          2.4932054526026954 2.4932054526026954 2.4932054526026954 2.4932054526026954 2.4932054526026954 2.4932054526026954
          2.4932054526026954 2.4932054526026954 2.4932054526026954 2.4932054526026954 2.4932054526026954 2.4932054526026954
          2.4932054526026954 2.4932054526026954 2.4932054526026954 2.4932054526026954 2.4932054526026954 2.4932054526026954
          2.4932054526026954 2.4932054526026954 2.4932054526026954 2.4932054526026954 2.4932054526026954 2.4932054526026954
          2.4932054526026954 2.4932054526026954 2.4932054526026954 2.4932054526026954 2.4932054526026954 2.4932054526026954
          2.4932054526026954 2.4932054526026954 2.4932054526026954 2.4932054526026954 2.4932054526026954 2.4932054526026954
          2.4932054526026954 2.4932054526026954 2.4932054526026954 2.4932054526026954 2.4932054526026954 2.4932054526026954
          2.4932054526026954 2.4932054526026954 2.4932054526026954 2.4932054526026954 2.4932054526026954 2.4932054526026954
          2.4932054526026954 2.4932054526026954 2.4932054526026954 2.4932054526026954 2.4932054526026954 2.4932054526026954
          2.4932054526026954 2.4932054526026954 2.4932054526026954 2.4932054526026954 2.4932054526026954 2.4932054526026954
          2.4932054526026954 2.4932054526026954 2.4932054526026954 2.4932054526026954 2.4932054526026954 2.4932054526026954
          2.4932054526026954 2.4932054526026954 2.4932054526026954 2.4932054526026954 2.4932054526026954 2.4932054526026954
          2.4932054526026954 2.4932054526026954 2.4932054526026954 2.4932054526026954 2.4932054526026954 2.4932054526026954
          2.4932054526026954 2.4932054526026954 2.4932054526026954 2.4932054526026954 2.4932054526026954 2.4932054526026954
          2.4932054526026954 2.4932054526026954 2.4932054526026954 2.4932054526026954 2.4932054526026954 2.4932054526026954
          2.4932054526026954 2.4932054526026954 2.4932054526026954 2.4932054526026954 2.4932054526026954 2.4932054526026954
          2.4932054526026954 2.4932054526026954 2.4932054526026954 2.4932054526026954 2.4932054526026954 2.4932054526026954
          2.4932054526026954 2.4932054526026954 2.4932054526026954 2.4932054526026954 2.4932054526026954 2.4932054526026954
          2.4932054526026954 2.4932054526026954 2.4932054526026954 2.4932054526026954 2.4932054526026954 2.4932054526026954
          2.4932054526026954 2.4932054526026954 2.4932054526026954 2.4932054526026954 2.4932054526026954 2.4932054526026954
          2.4932054526026954 2.4932054526026954 2.4932054526026954 2.4932054526026954 2.4932054526026954 2.4932054526026954
          2.4932054526026954 2.4932054526026954 2.4932054526026954 2.4932054526026954 2.4932054526026954 2.4932054526026954
          2.4932054526026954 2.4932054526026954 2.4932054526026954 2.4932054526026954 2.4932054526026954 2.4932054526026954
          2.4932054526026954 2.4932054526026954 2.4932054526026954 2.4932054526026954 2.4932054526026954 2.4932054526026954
          2.4932054526026954 2.4932054526026954 2.4932054526026954 2.4932054526026954 2.4932054526026954 2.4932054526026954
          2.4932054526026954 2.4932054526026954 2.4932054526026954 2.4932054526026954 2.4932054526026954 2.4932054526026954
          2.4932054526026954 2.4932054526026954 2.4932054526026954 2.4932054526026954 2.4932054526026954 2.4932054526026954
          2.4932054526026954 2.4932054526026954 2.4932054526026954 2.4932054526026954 2.4932054526026954 2.4932054526026954
          2.4932054526026954 2.4932054526026954 2.4932054526026954 2.4932054526026954 2.4932054526026954 2.4932054526026954
          2.4932054526026954 2.4932054526026954 2.4932054526026954 2.4932054526026954 2.4932054526026954 2.4932054526026954
          2.4932054526026954 2.4932054526026954 2.4932054526026954 2.4932054526026954 2.4932054526026954 2.4932054526026954
          2.4932054526026954 2.4932054526026954 2.4932054526026954 2.4932054526026954 2.4932054526026954 2.4932054526026954
          2.4932054526026954 2.4932054526026954 2.4932054526026954 2.4932054526026954 2.4932054526026954 2.4932054526026954
          2.4932054526026954 2.4932054526026954 2.4932054526026954 2.4932054526026954 2.4932054526026954 2.4932054526026954
          2.4932054526026954 2.4932054526026954 2.4932054526026954 2.4932054526026954 2.4932054526026954 2.4932054526026954
          2.4932054526026954 2.4932054526026954 2.4932054526026954 2.4932054526026954 2.4932054526026954 2.4932054526026954
          2.4932054526026954 2.4932054526026954 2.4932054526026954 2.4932054526026954 2.4932054526026954 2.4932054526026954
          2.4932054526026954 2.4932054526026954 2.4932054526026954 2.4932054526026954 2.4932054526026954 2.4932054526026954
          2.4932054526026954 2.4932054526026954 2.4932054526026954 2.4932054526026954 2.4932054526026954 2.4932054526026954
          2.4932054526026954 2.4932054526026954 2.4932054526026954 2.4932054526026954 2.4932054526026954 2.4932054526026954
          2.4932054526026954 2.4932054526026954 2.4932054526026954 2.4932054526026954 2.4932054526026954 2.4932054526026954
          2.4932054526026954 2.4932054526026954 2.4932054526026954 2.4932054526026954 2.4932054526026954 2.4932054526026954
          2.4932054526026954 2.4932054526026954 2.4932054526026954 2.4932054526026954 2.4932054526026954 2.4932054526026954
          2.4932054526026954 2.4932054526026954 2.4932054526026954 2.4932054526026954 2.4932054526026954 2.4932054526026954
          2.4932054526026954 2.4932054526026954 2.4932054526026954 2.4932054526026954 2.4932054526026954 2.4932054526026954
          2.4932054526026954 2.4932054526026954 2.4932054526026954 2.4932054526026954 2.4932054526026954 2.4932054526026954
          2.4932054526026954 2.4932054526026954 2.4932054526026954 2.4932054526026954 2.435256366848603 2.385401023954778
          2.3738057950525184 2.39602027787328 2.4561903071350946 2.4932054526026954 2.4932054526026954 2.4932054526026954
          2.4932054526026954 2.4932054526026954 2.4932054526026954 2.4932054526026954 2.4932054526026954 2.4932054526026954
          2.4932054526026954 2.4932054526026954 2.4932054526026954 2.4932054526026954 2.4932054526026954 2.4932054526026954
          2.4932054526026954 2.4932054526026954 2.4932054526026954 2.4932054526026954 2.4932054526026954 2.4932054526026954
          2.4932054526026954 2.4932054526026954 2.4932054526026954 2.4932054526026954 2.4932054526026954 2.4932054526026954
          2.4932054526026954 2.4932054526026954 2.4932054526026954 2.4932054526026954 2.4932054526026954 2.4932054526026954
          2.4932054526026954 2.4932054526026954 2.4932054526026954 2.4932054526026954 2.4932054526026954 2.4932054526026954
          2.4932054526026954 2.4932054526026954 2.4932054526026954 2.4932054526026954 2.4815555834427023 2.320262005551383
          2.2107045340086104 2.1470028558403813 2.118678053350405 2.1237059996499768 2.152429965720172 2.2074688022533495
          2.2951152770195806 2.4403241705772967 2.4932054526026954 2.4932054526026954 2.4932054526026954 2.4932054526026954
          2.4932054526026954 2.4932054526026954 2.4932054526026954 2.4932054526026954 2.4932054526026954 2.4932054526026954
          2.4932054526026954 2.4932054526026954 2.4932054526026954 2.4932054526026954 2.4932054526026954 2.4932054526026954
          2.4932054526026954 2.4932054526026954 2.4932054526026954 2.4932054526026954 2.4932054526026954 2.4932054526026954
          2.4932054526026954 2.4932054526026954 2.4932054526026954 2.4932054526026954 2.4932054526026954 2.4932054526026954
          2.4932054526026954 2.4932054526026954 2.4932054526026954 2.4932054526026954 2.4932054526026954 2.4932054526026954
          2.4932054526026954 2.4932054526026954 2.4932054526026954 2.4932054526026954 2.4932054526026954 2.4932054526026954
          2.3438745104914864 2.18322201514963 2.0873658956759424 2.0429672285046405 2.0208838033619547 2.0142565306475295
          2.0200875066098534 2.043845641218928 2.080211242008516 2.1350176888747185 2.230346345037099 2.411714600005014
          2.4932054526026954 2.4932054526026954 2.4932054526026954 2.4932054526026954 2.4932054526026954 2.4932054526026954
          2.4932054526026954 2.4932054526026954 2.4932054526026954 2.4932054526026954 2.4932054526026954 2.4932054526026954
          2.4932054526026954 2.4932054526026954 2.4932054526026954 2.4932054526026954 2.4932054526026954 2.4932054526026954
          2.4932054526026954 2.4932054526026954 2.4932054526026954 2.4932054526026954 2.4932054526026954 2.4932054526026954
          2.4932054526026954 2.4932054526026954 2.4932054526026954 2.4932054526026954 2.4932054526026954 2.4932054526026954
          2.4932054526026954 2.4932054526026954 2.4932054526026954 2.4932054526026954 2.4932054526026954 2.4932054526026954
          2.4932054526026954 2.34911783742144 2.1877254015000274 2.0434706504401916 1.9661540327681153 1.9562922695402893
          1.9584701356860081 1.9592049696913132 1.9585500799008928 1.9655908613680801 1.986026449724301 2.0170029927469777
          2.0523958773036375 2.108528343310017 2.222432610585665 2.4810922425557607 2.4932054526026954 2.4932054526026954
          2.4932054526026954 2.4932054526026954 2.4932054526026954 2.4932054526026954 2.4932054526026954 2.4932054526026954
          2.4932054526026954 2.4932054526026954 2.4932054526026954 2.4932054526026954 2.4932054526026954 2.4932054526026954
          2.4932054526026954 2.4932054526026954 2.4932054526026954 2.4932054526026954 2.4932054526026954 2.4932054526026954
          2.4932054526026954 2.4932054526026954 2.4932054526026954 2.4932054526026954 2.4932054526026954 2.4932054526026954
          2.4932054526026954 2.4932054526026954 2.4932054526026954 2.4932054526026954 2.4932054526026954 2.4375311134325743
          2.385329922196996 2.335247273127913 2.2645904809501136 2.145620213978257 2.0103219258403904 1.8858188454407578
          1.8241498208280034 1.8461201348034555 1.8813235435911364 1.8978200835553833 1.8989822668288896 1.8934082910159844
          1.8987514143062103 1.9210945025108592 1.9555036931890935 1.9935913420000981 2.0358253313639416 2.1100756383211516
          2.294455376791556 2.4932054526026954 2.4932054526026954 2.4932054526026954 2.4932054526026954 2.4932054526026954
          2.4932054526026954 2.4932054526026954 2.4932054526026954 2.4932054526026954 2.4932054526026954 2.4932054526026954
          2.4932054526026954 2.4932054526026954 2.4932054526026954 2.4932054526026954 2.4932054526026954 2.4932054526026954
          2.4932054526026954 2.4932054526026954 2.4932054526026954 2.4932054526026954 2.4932054526026954 2.4932054526026954
          2.4932054526026954 2.4932054526026954 2.4932054526026954 2.4932054526026954 2.4932054526026954 2.4932054526026954
          2.3916579568763634 2.194986603952944 2.1206797365029972 2.0729378022241414 2.0051728038996863 1.914163166586575
          1.810755359680787 1.7235268061024174 1.6792595156721535 1.7151152709766349 1.7751619325969725 1.8127586064774863
          1.8237025195788916 1.8200403661062987 1.8128781601429045 1.8201146273619127 1.8421982626651086 1.8755208249008262
          1.912828192292368 1.9580204079564967 2.0246183760474565 2.173638155379925 2.4932054526026954 2.4932054526026954
          2.4932054526026954 2.4932054526026954 2.4932054526026954 2.4932054526026954 2.4932054526026954 2.4932054526026954
          2.4932054526026954 2.4932054526026954 2.4932054526026954 2.4932054526026954 2.4932054526026954 2.4932054526026954
          2.4932054526026954 2.4932054526026954 2.4932054526026954 2.4932054526026954 2.4932054526026954 2.4932054526026954
          2.4932054526026954 2.4932054526026954 2.4932054526026954 2.4932054526026954 2.4932054526026954 2.4932054526026954
          2.4932054526026954 2.4932054526026954 2.320441930877849 2.046168897695832 1.8926528985776807 1.8369579463751056
          1.7751671304996055 1.6897685665715034 1.6066307738953751 1.5608584669829402 1.5478320069595806 1.5783171535485272
          1.6385106589215392 1.6863934838445311 1.7092699266822307 1.7140350933018715 1.7143561170147081 1.723485217455188
          1.7453829318705865 1.7693353446514049 1.790016746989731 1.8155400485711761 1.8676692775223187 1.944136647027671
          2.091169168916335 2.404423758700955 2.4932054526026954 2.4932054526026954 2.4932054526026954 2.4932054526026954
          2.4932054526026954 2.4932054526026954 2.4932054526026954 2.4932054526026954 2.4932054526026954 2.4932054526026954
          2.4932054526026954 2.4932054526026954 2.4932054526026954 2.4932054526026954 2.4932054526026954 2.4932054526026954
          2.4932054526026954 2.4932054526026954 2.4932054526026954 2.4932054526026954 2.4932054526026954 2.4932054526026954
          2.4932054526026954 2.4932054526026954 2.4932054526026954 2.4932054526026954 2.3045154195712687 2.019129438094022
          1.79078415820573 1.6688337695467308 1.618903339024831 1.5568769292677158 1.4839475287702486 1.4398199717250075
          1.4195345065052918 1.4307888635345187 1.4778423971957382 1.525481054413048 1.550362923426559 1.5563480726204582
          1.5587397707227661 1.575735186890052 1.6084360393889734 1.656063326250871 1.6979628054040836 1.7206566049671568
          1.7403433877507546 1.7973587667614686 1.892105275138777 2.062925681054713 2.3626260340757765 2.4932054526026954
          2.4932054526026954 2.4932054526026954 2.4932054526026954 2.4932054526026954 2.4932054526026954 2.4932054526026954
          2.4932054526026954 2.4932054526026954 2.4932054526026954 2.4932054526026954 2.4932054526026954 2.4932054526026954
          2.4932054526026954 2.4932054526026954 2.4932054526026954 2.4932054526026954 2.4932054526026954 2.4932054526026954
          2.4932054526026954 2.4932054526026954 2.4932054526026954 2.4932054526026954 2.4932054526026954 2.4932054526026954
          2.3338778299798384 2.068237890083877 1.8339974450020284 1.6512785351054065 1.553715422089715 1.5191601085533755
          1.4673617213403907 1.408830402604547 1.3604251773227583 1.31483237991252 1.3027005902354662 1.3292911627015591
          1.3579823246043852 1.36724321156203 1.3649359583480116 1.3706461211133125 1.3974678067171915 1.4455214234092313
          1.5153262610740845 1.5929207394483351 1.6566030797591282 1.716768345389404 1.8021509347243905 1.9287794421251465
          2.1180131135268208 2.3665893902197297 2.4932054526026954 2.4932054526026954 2.4932054526026954 2.4932054526026954
          2.4932054526026954 2.4932054526026954 2.4932054526026954 2.4932054526026954 2.4932054526026954 2.4932054526026954
          2.4932054526026954 2.4932054526026954 2.4932054526026954 2.4932054526026954 2.4932054526026954 2.4932054526026954
          2.4932054526026954 2.4932054526026954 2.4932054526026954 2.4932054526026954 2.4932054526026954 2.4932054526026954
          2.4932054526026954 2.4932054526026954 2.426878037533803 2.1589510503291836 1.9249824044314967 1.7303947356941114
          1.5879567074041694 1.5370324182111823 1.509781453166895 1.4469982924994764 1.3665007255191253 1.2806319081540158
          1.1971198932790013 1.1438202272015574 1.1336804343546747 1.1391182561574733 1.142332427214071 1.145095201737325
          1.1574514374110076 1.1884859213085246 1.2383155851090544 1.3141649499608734 1.424148537833901 1.5595551601433535
          1.7163516183070708 1.8874744005158364 2.057158535069844 2.2362586773246202 2.4327869988705926 2.4932054526026954
          2.4932054526026954 2.4932054526026954 2.4932054526026954 2.4932054526026954 2.4932054526026954 2.4932054526026954
          2.4932054526026954 2.4932054526026954 2.4932054526026954 2.4932054526026954 2.4932054526026954 2.4932054526026954
          2.4932054526026954 2.4932054526026954 2.4932054526026954 2.4932054526026954 2.4932054526026954 2.4932054526026954
          2.4932054526026954 2.4932054526026954 2.4932054526026954 2.4932054526026954 2.4932054526026954 2.3000564297155375
          2.0330923929684013 1.8258293801486956 1.6732420555818082 1.5864820802279134 1.557012699624486 1.5142150680340676
          1.4274683041604246 1.3099369023397704 1.1760139397750742 1.0453496924846988 0.94580211726746 0.8898715130536172
          0.8673978645412243 0.8651626446579189 0.8780376463996213 0.9080741673531122 0.9489031979374145 1.0071150386511383
          1.0854404230359616 1.2140980058175637 1.4297179302173237 1.7057593125166584 1.9632779337144892 2.177680781022019
          2.3630974319387503 2.4932054526026954 2.4932054526026954 2.4932054526026954 2.4932054526026954 2.4932054526026954
          2.4932054526026954 2.4932054526026954 2.4932054526026954 2.4932054526026954 2.4932054526026954 2.4932054526026954
          2.4932054526026954 2.4932054526026954 2.4932054526026954 2.4932054526026954 2.4932054526026954 2.4932054526026954
          2.4932054526026954 2.4932054526026954 2.4932054526026954 2.4932054526026954 2.4932054526026954 2.4932054526026954
          2.4932054526026954 2.4932054526026954 2.1900017847903164 1.9295013614658392 1.7606571244295253 1.6578646444230614
          1.6087433926245187 1.5769453293909497 1.5098933378439343 1.392733240407928 1.2349827760800205 1.0527378283030067
          0.8708357968090917 0.7185767968200149 0.6096317482076791 0.5489274222618721 0.5283687725576741 0.5455600975224495
          0.5945530310623635 0.6645578094118433 0.7437186849043224 0.8473622312772152 1.0138794956789197 1.2841696394339734
          1.6277533585181065 1.943530491169991 2.198390207167196 2.3995227266850567 2.4932054526026954 2.4932054526026954
          2.4932054526026954 2.4932054526026954 2.4932054526026954 2.4932054526026954 2.4932054526026954 2.4932054526026954
          2.4932054526026954 2.4932054526026954 2.4932054526026954 2.4932054526026954 2.4932054526026954 2.4932054526026954
          2.4932054526026954 2.4932054526026954 2.4932054526026954 2.4932054526026954 2.4932054526026954 2.4932054526026954
          2.4932054526026954 2.4932054526026954 2.4932054526026954 2.4932054526026954 2.4479158499571527 2.0853720610212134
          1.8498856263261547 1.7287876936548536 1.6643540681890172 1.630191563935442 1.583607204979376 1.4901923200117915
          1.3431095919740452 1.1464617404791024 0.9158484098515445 0.6828044001243607 0.4731574094651327 0.30871015518182154
          0.19956731135626027 0.14502881022732902 0.14962532555154032 0.21282201699958628 0.31428557393070616 0.4403221401381029
          0.6057124843705142 0.8286084909341161 1.1201625531610142 1.4747312422133907 1.8224835253324922 2.1099352938216245
          2.3330486946576374 2.4932054526026954 2.4932054526026954 2.4932054526026954 2.4932054526026954 2.4932054526026954
          2.4932054526026954 2.4932054526026954 2.4932054526026954 2.4932054526026954 2.4932054526026954 2.4932054526026954
          2.4932054526026954 2.4932054526026954 2.4932054526026954 2.4932054526026954 2.4932054526026954 2.4932054526026954
          2.4932054526026954 2.4932054526026954 2.4932054526026954 2.4932054526026954 2.4932054526026954 2.4932054526026954
          2.4932054526026954 2.342433437127593 1.9960083317825226 1.803366937341043 1.7159516916181123 1.669440720933679
          1.636443888899593 1.5755900528068392 1.4613964327876026 1.285837768560567 1.0501568995328379 0.7720834601750132
          0.48296780296352115 0.2142470936470082 -0.00540156716106306 -0.16363184485356022 -0.2585288602020056 -0.27801687159232197
          -0.21635692453257035 -0.07919576294027476 0.11917791207488404 0.3626575976835509 0.640677784655717 0.9551350882796713
          1.2980807827968013 1.6485003345800782 1.9570087572171404 2.196491992234555 2.383374522768399 2.4932054526026954
          2.4932054526026954 2.4932054526026954 2.4932054526026954 2.4932054526026954 2.4932054526026954 2.4932054526026954
          2.4932054526026954 2.4932054526026954 2.4932054526026954 2.4932054526026954 2.4932054526026954 2.4932054526026954
          2.4932054526026954 2.4932054526026954 2.4932054526026954 2.4932054526026954 2.4932054526026954 2.4932054526026954
          2.4932054526026954 2.4932054526026954 2.4932054526026954 2.4932054526026954 2.237565668773673 1.9383779122666644
          1.7799499043461686 1.701440959165059 1.6619505001609947 1.6291196979888674 1.5584621663712013 1.4278822670280704
          1.2275485712994578 0.954051635740333 0.6273659637270117 0.2778242100678324 -0.04930422582665861 -0.3182665546020985
          -0.5194030929668146 -0.6547793517317317 -0.69754981923956 -0.6298684937215812 -0.44666664073051987 -0.18433052855858195
          0.11718155088629359 0.43476909005800324 0.7585689025689653 1.0948127505056078 1.4345309835722853 1.7443770786833805
          2.003817977932628 2.215039811595415 2.4076579702969596 2.4932054526026954 2.4932054526026954 2.4932054526026954
          2.4932054526026954 2.4932054526026954 2.4932054526026954 2.4932054526026954 2.4932054526026954 2.4932054526026954
          2.4932054526026954 2.4932054526026954 2.4932054526026954 2.4932054526026954 2.4932054526026954 2.4932054526026954
          2.4932054526026954 2.4932054526026954 2.4932054526026954 2.4932054526026954 2.4932054526026954 2.4932054526026954
          2.4553226771282635 2.1489524257748096 1.9083446193981797 1.7632782077584839 1.6838394382352766 1.649029239485888
          1.6155644176248705 1.5375597550163638 1.39491456833032 1.173684492441814 0.869278106407382 0.49448789263017945
          0.08686907799956571 -0.29412722956219 -0.6037021356516268 -0.8433844841509787 -1.0008892719752212 -1.040099570608411
          -0.9347359245855872 -0.7165623126792714 -0.4261811755012826 -0.10745903962651306 0.21526789079608766 0.5351762657787366
          0.8694718689620259 1.2140009963132006 1.5526750473829354 1.85066725605622 2.102142620585068 2.3228971967604166
          2.4932054526026954 2.4932054526026954 2.4932054526026954 2.4932054526026954 2.4932054526026954 2.4932054526026954
          2.4932054526026954 2.4932054526026954 2.4932054526026954 2.4932054526026954 2.4932054526026954 2.4932054526026954
          2.4932054526026954 2.4932054526026954 2.4932054526026954 2.4932054526026954 2.4932054526026954 2.4932054526026954
          2.4932054526026954 2.4932054526026954 2.4932054526026954 2.353101611875865 2.0910005851562072 1.8919260986932682
          1.7494344747129498 1.667734833373491 1.6364064370651001 1.601780926361315 1.5182841904126156 1.3693700957184414
          1.1377779346611296 0.808526538205214 0.395877215054132 -0.05763420250030856 -0.4801423503157604 -0.8256455627427906
          -1.0874566408047828 -1.2316934433367333 -1.2213268269395927 -1.0765786761860048 -0.8425143370691357 -0.5539211767040181
          -0.23520165432310153 0.09011145798667865 0.42179705474565204 0.7727394386024492 1.14444313272604 1.5101905945704845
          1.8343490816455963 2.1013351994708684 2.334600075418592 2.4932054526026954 2.4932054526026954 2.4932054526026954
          2.4932054526026954 2.4932054526026954 2.4932054526026954 2.4932054526026954 2.4932054526026954 2.4932054526026954
          2.4932054526026954 2.4932054526026954 2.4932054526026954 2.4932054526026954 2.4932054526026954 2.4932054526026954
          2.4932054526026954 2.4932054526026954 2.4932054526026954 2.4932054526026954 2.4932054526026954 2.4932054526026954
          2.308379186328885 2.0607972932273992 1.8901956925378514 1.7444977089752756 1.6575590404766487 1.6274130118379309
          1.5891562527450516 1.503141357971403 1.3550634948188736 1.1207924781126444 0.7819171131296104 0.34633561123073003
          -0.1310708185441424 -0.581366990826976 -0.9523461516288805 -1.2063626537893355 -1.2986944959292952 -1.2356841056721222
          -1.0626092406212253 -0.8195442315882066 -0.5260976153871837 -0.20451785897572114 0.12911242602845735 0.47283946164237955
          0.8371044416163202 1.2218322991765915 1.5970736374181957 1.921711415145639 2.1846598783731377 2.4169900622702323
          2.4932054526026954 2.4932054526026954 2.4932054526026954 2.4932054526026954 2.4932054526026954 2.4932054526026954
          2.4932054526026954 2.4932054526026954 2.4932054526026954 2.4932054526026954 2.4932054526026954 2.4932054526026954
          2.4932054526026954 2.4932054526026954 2.4932054526026954 2.4932054526026954 2.4932054526026954 2.4932054526026954
          2.4932054526026954 2.4932054526026954 2.4932054526026954 2.31634096248061 2.062837537755992 1.9034460555755695
          1.7516597771043418 1.6491637737049034 1.61193567866185 1.5728757104971258 1.4910639450975685 1.3499374388865715
          1.1215362031331149 0.7841960594977039 0.3442138251591535 -0.14579078070456242 -0.6066568774828583 -0.9741218541164748
          -1.1887766580022971 -1.2256031267128773 -1.1214142038262798 -0.919389342271818 -0.6548501700562817 -0.34500914424968127
          -0.01846097208996187 0.3109815089145334 0.6508813808861795 1.0117591978233298 1.38910498410834 1.7475210720945928
          2.0487851419402037 2.2950471741165033 2.4932054526026954 2.4932054526026954 2.4932054526026954 2.4932054526026954
          2.4932054526026954 2.4932054526026954 2.4932054526026954 2.4932054526026954 2.4932054526026954 2.4932054526026954
          2.4932054526026954 2.4932054526026954 2.4932054526026954 2.4932054526026954 2.4932054526026954 2.4932054526026954
          2.4932054526026954 2.4932054526026954 2.4932054526026954 2.4932054526026954 2.4932054526026954 2.4932054526026954
          2.366179864057527 2.092917528766155 1.9277484541466916 1.7672907563260096 1.641601187462384 1.5894423980372543
          1.5531847094193247 1.4806455130123923 1.3491436830709518 1.12981343117657 0.8001500986930697 0.36679292311129125
          -0.10635379821650008 -0.5417546676315619 -0.8748143361875007 -1.037787588422582 -1.0292003343772165 -0.882840369928861
          -0.6482037848278689 -0.3557370092269637 -0.038404494250968015 0.2773855439964138 0.5877362073489797 0.906170127907179
          1.2441340097504028 1.592524953845556 1.9087097803132589 2.1717694598285866 2.406692017112404 2.4932054526026954
          2.4932054526026954 2.4932054526026954 2.4932054526026954 2.4932054526026954 2.4932054526026954 2.4932054526026954
          2.4932054526026954 2.4932054526026954 2.4932054526026954 2.4932054526026954 2.4932054526026954 2.4932054526026954
          2.4932054526026954 2.4932054526026954 2.4932054526026954 2.4932054526026954 2.4932054526026954 2.4932054526026954