<VTKFile type="PolyData" version="1.0" byte_order="LittleEndian" header_type="UInt64">
  <PolyData>
    <Piece NumberOfPoints="2601" NumberOfVerts="0" NumberOfLines="0" NumberOfStrips="0" NumberOfPolys="2500">
      <PointData>
        <DataArray type="Float32" Name="zvalue" NumberOfComponents="1" format="ascii" RangeMin="-1.4731126324283965" RangeMax="2.312535423847214">
          2.312535423847214 2.312535423847214 2.312535423847214 2.312535423847214 2.312535423847214 2.312535423847214
          2.312535423847214 2.312535423847214 2.312535423847214 2.312535423847214 2.312535423847214 2.312535423847214
          2.312535423847214 2.312535423847214 2.312535423847214 2.312535423847214 2.312535423847214 2.312535423847214
          2.312535423847214 2.312535423847214 2.312535423847214 2.312535423847214 2.312535423847214 2.312535423847214
          2.312535423847214 2.312535423847214 2.312535423847214 2.312535423847214 2.312535423847214 2.312535423847214
          2.312535423847214 2.312535423847214 2.312535423847214 2.312535423847214 2.312535423847214 2.312535423847214
          2.312535423847214 2.312535423847214 2.312535423847214 2.312535423847214 2.312535423847214 2.312535423847214
          2.312535423847214 2.312535423847214 2.312535423847214 2.312535423847214 2.312535423847214 2.312535423847214
          2.312535423847214 2.312535423847214 2.312535423847214 2.312535423847214 2.312535423847214 2.312535423847214
          2.312535423847214 2.312535423847214 2.312535423847214 2.312535423847214 2.312535423847214 2.312535423847214
          2.312535423847214 2.312535423847214 2.312535423847214 2.312535423847214 2.312535423847214 2.312535423847214
          2.312535423847214 2.312535423847214 2.312535423847214 2.312535423847214 2.312535423847214 2.312535423847214
          2.312535423847214 2.312535423847214 2.312535423847214 2.312535423847214 2.312535423847214 2.312535423847214
          2.312535423847214 2.312535423847214 2.312535423847214 2.312535423847214 2.312535423847214 2.312535423847214
          2.312535423847214 2.312535423847214 2.312535423847214 2.312535423847214 2.312535423847214 2.312535423847214
          2.312535423847214 2.312535423847214 2.312535423847214 2.312535423847214 2.312535423847214 2.312535423847214
          2.312535423847214 2.312535423847214 2.312535423847214 2.312535423847214 2.312535423847214 2.312535423847214
          2.312535423847214 2.312535423847214 2.312535423847214 2.312535423847214 2.312535423847214 2.312535423847214
          2.312535423847214 2.312535423847214 2.312535423847214 2.312535423847214 2.312535423847214 2.312535423847214
          2.312535423847214 2.312535423847214 2.312535423847214 2.312535423847214 2.312535423847214 2.312535423847214
          2.312535423847214 2.312535423847214 2.312535423847214 2.312535423847214 2.312535423847214 2.312535423847214
          2.312535423847214 2.312535423847214 2.312535423847214 2.312535423847214 2.312535423847214 2.312535423847214
          2.312535423847214 2.312535423847214 2.312535423847214 2.312535423847214 2.312535423847214 2.312535423847214
          2.312535423847214 2.312535423847214 2.312535423847214 2.312535423847214 2.312535423847214 2.312535423847214
          2.312535423847214 2.312535423847214 2.312535423847214 2.312535423847214 2.312535423847214 2.312535423847214
          2.312535423847214 2.312535423847214 2.312535423847214 2.312535423847214 2.312535423847214 2.312535423847214
          2.312535423847214 2.312535423847214 2.312535423847214 2.312535423847214 2.312535423847214 2.312535423847214
          2.312535423847214 2.312535423847214 2.312535423847214 2.312535423847214 2.312535423847214 2.312535423847214
          2.312535423847214 2.312535423847214 2.312535423847214 2.312535423847214 2.312535423847214 2.312535423847214
          2.312535423847214 2.312535423847214 2.312535423847214 2.312535423847214 2.312535423847214 2.312535423847214
          2.312535423847214 2.312535423847214 2.312535423847214 2.312535423847214 2.312535423847214 2.312535423847214
          2.312535423847214 2.312535423847214 2.312535423847214 2.312535423847214 2.312535423847214 2.312535423847214
          2.312535423847214 2.312535423847214 2.312535423847214 2.312535423847214 2.312535423847214 2.312535423847214
          2.312535423847214 2.312535423847214 2.312535423847214 2.312535423847214 2.312535423847214 2.312535423847214
          2.312535423847214 2.312535423847214 2.312535423847214 2.312535423847214 2.312535423847214 2.312535423847214
          2.312535423847214 2.312535423847214 2.312535423847214 2.312535423847214 2.312535423847214 2.312535423847214
          2.312535423847214 2.312535423847214 2.312535423847214 2.312535423847214 2.312535423847214 2.312535423847214
          2.312535423847214 2.312535423847214 2.312535423847214 2.312535423847214 2.312535423847214 2.312535423847214
          2.312535423847214 2.312535423847214 2.312535423847214 2.312535423847214 2.312535423847214 2.312535423847214
          2.312535423847214 2.312535423847214 2.312535423847214 2.312535423847214 2.312535423847214 2.312535423847214
          2.312535423847214 2.312535423847214 2.312535423847214 2.312535423847214 2.312535423847214 2.312535423847214
          2.312535423847214 2.312535423847214 2.312535423847214 2.312535423847214 2.312535423847214 2.312535423847214
          2.312535423847214 2.312535423847214 2.312535423847214 2.312535423847214 2.312535423847214 2.312535423847214
          2.312535423847214 2.312535423847214 2.312535423847214 2.312535423847214 2.312535423847214 2.312535423847214
          2.312535423847214 2.312535423847214 2.312535423847214 2.312535423847214 2.312535423847214 2.312535423847214
          2.312535423847214 2.312535423847214 2.312535423847214 2.312535423847214 2.312535423847214 2.312535423847214
          2.312535423847214 2.312535423847214 2.312535423847214 2.312535423847214 2.2780025197791125 2.1954017088652638
          2.1060025485726257 2.032439580131829 2.008669388255012 2.0430235944814514 2.1230489419640315 2.2398172650374564
          2.312535423847214 2.312535423847214 2.312535423847214 2.312535423847214 2.312535423847214 2.312535423847214
          2.312535423847214 2.312535423847214 2.312535423847214 2.312535423847214 2.312535423847214 2.312535423847214
          2.312535423847214 2.312535423847214 2.312535423847214 2.312535423847214 2.312535423847214 2.312535423847214
          2.312535423847214 2.312535423847214 2.312535423847214 2.312535423847214 2.312535423847214 2.312535423847214
          2.312535423847214 2.312535423847214 2.312535423847214 2.312535423847214 2.312535423847214 2.312535423847214
          2.312535423847214 2.312535423847214 2.312535423847214 2.312535423847214 2.312535423847214 2.224666749724249
          1.9137937398992195 1.8071203345214655 1.836392022853016 1.8471197892310098 1.8121714193139324 1.7459089315548801
          1.6664941431987865 1.5818935024353866 1.4912763479895061 1.4024375192325007 1.3416211065751067 1.3291080915439486
          1.3630130383618542 1.4374663651959454 1.5363519532381733 1.6607658348369012 1.8265434251132842 2.0808773546032673
          2.312535423847214 2.312535423847214 2.312535423847214 2.312535423847214 2.312535423847214 2.312535423847214
          2.312535423847214 2.312535423847214 2.312535423847214 2.312535423847214 2.312535423847214 2.312535423847214
          2.312535423847214 2.312535423847214 2.312535423847214 2.312535423847214 2.312535423847214 2.312535423847214
          2.312535423847214 2.312535423847214 2.312535423847214 2.312535423847214 2.312535423847214 2.312535423847214
          2.312535423847214 2.312535423847214 2.312535423847214 2.312535423847214 2.312535423847214 2.312535423847214
          2.312535423847214 2.214912246726977 1.8396109457960619 1.4980034965333833 1.3301483233786673 1.2825508144615205
          1.2468914817524936 1.205185029748194 1.165122801900404 1.1321899468340408 1.1015359907278335 1.068353658718018
          1.0428426077167632 1.0260873434256876 1.0193569999566119 1.039166753823689 1.0999271341002121 1.1890013775424666
          1.2940437907598363 1.4122468610572134 1.581518279691156 1.8274813630066002 2.1253528420059165 2.312535423847214
          2.312535423847214 2.312535423847214 2.312535423847214 2.312535423847214 2.312535423847214 2.312535423847214
          2.312535423847214 2.312535423847214 2.312535423847214 2.312535423847214 2.312535423847214 2.312535423847214
          2.312535423847214 2.312535423847214 2.312535423847214 2.312535423847214 2.312535423847214 2.312535423847214
          2.312535423847214 2.312535423847214 2.312535423847214 2.312535423847214 2.312535423847214 2.312535423847214
          2.312535423847214 2.312535423847214 2.312535423847214 2.130912821064443 1.8547317616466448 1.5091562062433774
          1.2389953593417842 1.1172195839635202 1.0657184534313833 1.0379395623462577 1.023584172155969 1.0153677244772874
          1.0081177375687738 0.9988943267238262 0.9888583491268683 0.9736805469461112 0.9494437550184657 0.9215671657653834
          0.9102711982037782 0.9375279267654208 1.0040184164200117 1.0940538350825502 1.194963618639745 1.3322958836773047
          1.502922907978631 1.715444140360404 1.9782690584532743 2.297232606154359 2.312535423847214 2.312535423847214
          2.312535423847214 2.312535423847214 2.312535423847214 2.312535423847214 2.312535423847214 2.312535423847214
          2.312535423847214 2.312535423847214 2.312535423847214 2.312535423847214 2.312535423847214 2.312535423847214
          2.312535423847214 2.312535423847214 2.312535423847214 2.312535423847214 2.312535423847214 2.312535423847214
          2.312535423847214 2.312535423847214 2.312535423847214 2.312535423847214 2.1361656171713346 1.942572448567563
          1.7716079294454574 1.5282147254269267 1.2560919740327732 1.089387383705668 1.0280635150155395 1.0058268403506694
          0.9956961321121554 0.9916705115279798 0.9889956348659177 0.9849316219323508 0.9767796758286768 0.9605021610389516
          0.9340094321716687 0.8981391698902393 0.8585828994025099 0.8320105702154387 0.8349811504300625 0.8749779362679582
          0.9462563911539295 1.0408384531755464 1.169412236968918 1.319972312800436 1.4858179075409976 1.6882342025386068
          1.9715698775351675 2.312535423847214 2.312535423847214 2.312535423847214 2.312535423847214 2.312535423847214
          2.312535423847214 2.312535423847214 2.312535423847214 2.312535423847214 2.312535423847214 2.312535423847214
          2.312535423847214 2.312535423847214 2.312535423847214 2.312535423847214 2.312535423847214 2.312535423847214
          2.312535423847214 2.312535423847214 2.312535423847214 2.312535423847214 2.312535423847214 2.312535423847214
          2.2238603809099966 1.8178576510014837 1.6502074557545967 1.5008333374004972 1.2877912291727092 1.095999568538774
          1.0010283090669723 0.9713101448942809 0.9648231616785025 0.9627183573408838 0.9574367733386525 0.9475251235735489
          0.932873363331937 0.9124509974804286 0.8851552881153836 0.8506217708256565 0.8104427723344915 0.772282577854265
          0.7466579009984309 0.7427823593951942 0.7663625104832137 0.819803728689681 0.9102022582984556 1.0349469590231466
          1.1774500663686895 1.3308142667226055 1.5036340134147457 1.7500323342624842 2.080483772225962 2.312535423847214
          2.312535423847214 2.312535423847214 2.312535423847214 2.312535423847214 2.312535423847214 2.312535423847214
          2.312535423847214 2.312535423847214 2.312535423847214 2.312535423847214 2.312535423847214 2.312535423847214
          2.312535423847214 2.312535423847214 2.312535423847214 2.312535423847214 2.312535423847214 2.312535423847214
          2.312535423847214 2.312535423847214 2.312535423847214 1.928909990827791 1.605431119766648 1.4900591499636255
          1.3245193441566425 1.127192085202911 0.996968686090743 0.9451312095094349 0.9343223928078784 0.9320954921635919
          0.9193322581731121 0.8933803359024524 0.8601771857952556 0.8253019158776737 0.7897548996199509 0.7506617633360674
          0.7107136274707333 0.6736381116887611 0.6463745796186748 0.6339618959274016 0.6397380530313015 0.6638731360908744
          0.7132632963111405 0.7976784787517541 0.9158097388657088 1.0552425060637896 1.2064642228676927 1.3669848326475236
          1.5872594122912096 1.8916541592476133 2.2307493271711754 2.312535423847214 2.312535423847214 2.312535423847214
          2.312535423847214 2.312535423847214 2.312535423847214 2.312535423847214 2.312535423847214 2.312535423847214
          2.312535423847214 2.312535423847214 2.312535423847214 2.312535423847214 2.312535423847214 2.312535423847214
          2.312535423847214 2.312535423847214 2.312535423847214 2.312535423847214 2.312535423847214 2.1423694835841047
          1.6880071608225067 1.487279857692128 1.359171853247647 1.1748042398704723 1.016749137011916 0.9385270677328256
          0.9075649590549251 0.897913008731106 0.8806420030859721 0.839269549041856 0.7801787774945087 0.7173740140645772
          0.6591850428688599 0.6051647273144654 0.5562341791923003 0.5141693999966582 0.485867194580254 0.4760175036548488
          0.48526267671939693 0.5116872113093511 0.5543201052814886 0.6156496497183294 0.7012386976873968 0.8144205787859304
          0.9528794495482895 1.1053477283335036 1.2612726894332758 1.456414696979333 1.7374382506390365 2.063166240965708
          2.312535423847214 2.312535423847214 2.312535423847214 2.312535423847214 2.312535423847214 2.312535423847214
          2.312535423847214 2.312535423847214 2.312535423847214 2.312535423847214 2.312535423847214 2.312535423847214
          2.312535423847214 2.312535423847214 2.312535423847214 2.312535423847214 2.312535423847214 2.312535423847214
          2.312535423847214 2.312535423847214 1.8934052455564447 1.5201313456935162 1.365113882438616 1.2159062925500628
          1.053477792392914 0.9492991421175491 0.8995903762641536 0.8688690295191016 0.8424279952821245 0.7940145996791407
          0.7133273562256188 0.61591650482128 0.5216881012594403 0.4398814648862858 0.37108612645983197 0.3154298828604791
          0.2763686010023798 0.25988774384672625 0.2693426165006543 0.3019547550356524 0.3547471186535507 0.42676986334934613
          0.5134857452080488 0.6134197322537245 0.7308013750048465 0.8717602688618296 1.027497437596364 1.1816911641649286
          1.3572680302416644 1.60719144741649 1.912975543112069 2.2266283278250945 2.312535423847214 2.312535423847214
          2.312535423847214 2.312535423847214 2.312535423847214 2.312535423847214 2.312535423847214 2.312535423847214
          2.312535423847214 2.312535423847214 2.312535423847214 2.312535423847214 2.312535423847214 2.312535423847214
          2.312535423847214 2.312535423847214 2.312535423847214 2.312535423847214 2.1332024996055394 1.676339296910777
          1.3668066747542418 1.2211447063470802 1.0801635945264427 0.9708401978719099 0.907828936712242 0.8627808484348322
          0.8153503227984567 0.75592556341269 0.6654576383251396 0.5432297914939469 0.41104541113679033 0.2895156479164698
          0.18962144058116123 0.11060702417877613 0.05233267559827389 0.01967301597855782 0.01621538144348932 0.0438215066680598
          0.09832476478537996 0.1779483904334838 0.28216528458381646 0.40158718345141087 0.5264688982399582 0.6582006984873657
          0.8063191882684899 0.9705602979025121 1.1294397510966177 1.2869443073071176 1.5000516910280168 1.7795351826050188
          2.0929455446865672 2.312535423847214 2.312535423847214 2.312535423847214 2.312535423847214 2.312535423847214
          2.312535423847214 2.312535423847214 2.312535423847214 2.312535423847214 2.312535423847214 2.312535423847214
          2.312535423847214 2.312535423847214 2.312535423847214 2.312535423847214 2.312535423847214 2.312535423847214
          2.312535423847214 1.9025840756728933 1.448108682068075 1.2095989387762927 1.087322487596063 0.988161271525705
          0.9239438772900718 0.8766912796791951 0.8188383929055661 0.7397909710651107 0.6359621737796659 0.5008988360126043
          0.3434730196829486 0.18559087518306908 0.04662552487933239 -0.06527119422142226 -0.15048669721262034 -0.2091823073614438
          -0.23550809463219813 -0.22734330945592107 -0.18391474569397634 -0.11055211401622768 -0.005590728663368393 0.12985246625038138
          0.2828691300672489 0.4378454645556782 0.5900209681763843 0.7502799799500919 0.9282088844604471 1.1009996512637465
          1.2548298779017164 1.4345335058076616 1.67598201763089 1.9711179362824285 2.293657854233518 2.312535423847214
          2.312535423847214 2.312535423847214 2.312535423847214 2.312535423847214 2.312535423847214 2.312535423847214
          2.312535423847214 2.312535423847214 2.312535423847214 2.312535423847214 2.312535423847214 2.312535423847214
          2.312535423847214 2.312535423847214 2.312535423847214 2.1161739947636047 1.638878766850696 1.2382851978175515
          1.0840373542984343 0.9988299410074319 0.940576866033998 0.8968523948330437 0.8450881886187748 0.7604971340583501
          0.6399811379412356 0.489650078728273 0.31620336124617143 0.1343032281190614 -0.03856627317104461 -0.18643908433671896
          -0.3060434925779197 -0.39613158249015085 -0.4555436154027582 -0.47879247424334664 -0.4609709352856918 -0.40420420605843377
          -0.3120072763328154 -0.18346109282725484 -0.01965356168810701 0.16354100474867325 0.3469987504080756 0.5212113129837068
          0.6976792449630779 0.8921826908125601 1.0879355282421141 1.2560907833482702 1.4178288119498905 1.620678104073982
          1.8872530064066622 2.2014110295645186 2.312535423847214 2.312535423847214 2.312535423847214 2.312535423847214
          2.312535423847214 2.312535423847214 2.312535423847214 2.312535423847214 2.312535423847214 2.312535423847214
          2.312535423847214 2.312535423847214 2.312535423847214 2.312535423847214 2.312535423847214 2.2898019729800216
          1.849368730342582 1.3748260027672576 1.088744177836679 1.004165576419913 0.9530674942730286 0.9167449570064041
          0.8755585385114237 0.8038795652837157 0.6825569289867002 0.5185575904838858 0.3280943470955509 0.12684800376958424
          -0.06957835477936976 -0.24826570838487888 -0.40017984658324224 -0.5234898345680996 -0.6185454851908396 -0.6805328553698802
          -0.7012841134460285 -0.6753404643578278 -0.6065867989480038 -0.4979988760447948 -0.3480036271424678 -0.15974456140814397
          0.04874756864323122 0.256360434541314 0.45108097554529475 0.6434922118583591 0.8557567434378028 1.075609555312676
          1.2695773219286015 1.438898779056266 1.6232403262952262 1.8635366015571153 2.167092339682009 2.312535423847214
          2.312535423847214 2.312535423847214 2.312535423847214 2.312535423847214 2.312535423847214 2.312535423847214
          2.312535423847214 2.312535423847214 2.312535423847214 2.312535423847214 2.312535423847214 2.312535423847214
          2.312535423847214 2.312535423847214 2.0264841160808635 1.571817717918627 1.1630686024186438 1.0042569129691228
          0.9598164424231712 0.9317735589572492 0.9025881824756233 0.8500117031164824 0.7467976576590104 0.5847706271013127
          0.38189655291232927 0.1613573365326191 -0.05620412093300088 -0.25823343229082607 -0.43779011049390537 -0.5908613367224974
          -0.7168547023349927 -0.8152880242741186 -0.8791896831410316 -0.8972013963728886 -0.8642572191027982 -0.7853199293896007
          -0.6621479640942854 -0.4936015738941713 -0.2860423436032179 -0.05874412550261325 0.16749359370738026 0.37963376071317384
          0.5872884060515982 0.8147478936634257 1.056820023936876 1.2779385761884885 1.4678572006373987 1.6577644578254784
          1.8924244211373373 2.188478298290382 2.312535423847214 2.312535423847214 2.312535423847214 2.312535423847214
          2.312535423847214 2.312535423847214 2.312535423847214 2.312535423847214 2.312535423847214 2.312535423847214
          2.312535423847214 2.312535423847214 2.312535423847214 2.312535423847214 2.1599272461911805 1.7565936599372773
          1.320659153901321 1.0330297417953795 0.9594083455176239 0.9377219657958638 0.9212395192879582 0.8886318258125008
          0.8128620080264166 0.671856370488508 0.4707123524750319 0.23582908212049197 -0.0034043980498012433 -0.22715877515709743
          -0.4293709754813414 -0.6073661706587317 -0.7596974733434092 -0.8867290472950279 -0.9865991341719628 -1.049882898914244
          -1.061766717399674 -1.0217156870770108 -0.9343786204434062 -0.7994908415477276 -0.616927964494389 -0.396371347803665
          -0.15663044668065704 0.08235512230108574 0.3084255837362076 0.5299874409377898 0.769371788339271 1.028658176146925
          1.2741560726916714 1.485870531491524 1.6920848213604138 1.9337222882398508 2.2303044679290793 2.312535423847214
          2.312535423847214 2.312535423847214 2.312535423847214 2.312535423847214 2.312535423847214 2.312535423847214
          2.312535423847214 2.312535423847214 2.312535423847214 2.312535423847214 2.312535423847214 2.312535423847214
          2.2896819674066213 1.9145413528496416 1.508515480201296 1.1385382965606388 0.9673710094193452 0.9348741740448442
          0.9271049788017467 0.9138270338114972 0.868019425003092 0.7611888276511422 0.5812662042382815 0.34551422413905125
          0.0881441481303938 -0.16076881888990086 -0.38501703397438664 -0.58404592708724 -0.7585081581489427 -0.9084096219569356
          -1.0344054181797917 -1.1328375369729744 -1.1909855486145864 -1.1942861236353446 -1.1458528762804379 -1.0503023427055183
          -0.9072962669872174 -0.7171252938490092 -0.48967458417228393 -0.24300622465692984 0.005104638269563458 0.24329886305178938
          0.4759594312589582 0.7248907808452687 0.9957080931523095 1.2596724619097115 1.4906958044698513 1.7129276891955376
          1.9623721547236823 2.2612247421767897 2.312535423847214 2.312535423847214 2.312535423847214 2.312535423847214
          2.312535423847214 2.312535423847214 2.312535423847214 2.312535423847214 2.312535423847214 2.312535423847214
          2.312535423847214 2.312535423847214 2.312535423847214 2.0616385733887945 1.6847319523851023 1.3094669313492668
          1.0322425371365416 0.9341595878922274 0.9212115139395006 0.9213217697354479 0.9043342959592775 0.8374232282218353
          0.6951992233450919 0.4780155864412029 0.21440467774612104 -0.05715010017040931 -0.3083945404623372 -0.5298975115751089
          -0.7234155049304709 -0.892465010201069 -1.0383867331677674 -1.1610701885380916 -1.2536436335479675 -1.3013130848953052
          -1.2933096141619989 -1.2366800090839185 -1.134324201828403 -0.9854121889453888 -0.7919555779060091 -0.562358495616752
          -0.312564555068151 -0.0576588884872522 0.19019005475194417 0.4317779458875989 0.6859106262639877 0.964282850348389
          1.2388077475739507 1.483780276901875 1.7209052645329963 1.9780859690728811 2.2801709665727756 2.312535423847214
          2.312535423847214 2.312535423847214 2.312535423847214 2.312535423847214 2.312535423847214 2.312535423847214
          2.312535423847214 2.312535423847214 2.312535423847214 2.312535423847214 2.312535423847214 2.235072433893171
          1.8499934312114596 1.4935436700358455 1.1758596368747822 0.9763269930829831 0.9144529704942321 0.9130570937087085
          0.9176899332602825 0.8898247075686874 0.796168447235183 0.6179324695081585 0.3675612821839588 0.0831152501853213
          -0.19460921467528722 -0.44377218060848556 -0.6603644729540655 -0.8482332706276631 -1.0105501246584412 -1.1502800200241319
          -1.2660732553735072 -1.3487663715508764 -1.3813703904658565 -1.3611110297703712 -1.2960835192325615 -1.1874600475728017
          -1.0349921228816328 -0.8397189176748967 -0.6095468888572296 -0.3581087364441373 -0.09961559791963526 0.1530367922112322
          0.4022410746861759 0.6610011020583489 0.9389159314408736 1.2148810421201024 1.467166880994418 1.714108468475353
          1.9813439800986912 2.2912628268710526 2.312535423847214 2.312535423847214 2.312535423847214 2.312535423847214
          2.312535423847214 2.312535423847214 2.312535423847214 2.312535423847214 2.312535423847214 2.312535423847214
          2.312535423847214 2.312535423847214 2.030758542768483 1.6742738331249392 1.3602882281853834 1.1002308264057228
          0.9458500901872985 0.9021185741703411 0.9095446695435201 0.9139303364539617 0.8699437204585533 0.7460840335703344
          0.5324899048114826 0.25459668055620793 -0.042214626200602436 -0.3198631867308092 -0.5645154691320453 -0.7752317410511413
          -0.9561248307838193 -1.1110304501761612 -1.2431375461859389 -1.3487883643135374 -1.4171630674567377 -1.4325103944637503
          -1.400288473363999 -1.3269394609668586 -1.2125257879164946 -1.0556781483419202 -0.8584204634865084 -0.6274851265147978
          -0.37532715774382247 -0.1161742633052601 0.13955325583192504 0.3920541743650669 0.6518924497841778 0.9232979499575552
          1.1906755986151694 1.4396834268587853 1.6918758935669473 1.9711759114963492 2.2957167804413774 2.312535423847214
          2.312535423847214 2.312535423847214 2.312535423847214 2.312535423847214 2.312535423847214 2.312535423847214
          2.312535423847214 2.312535423847214 2.312535423847214 2.312535423847214 2.2602495628839447 1.8637663388286434
          1.5528388237603103 1.2831173620677085 1.0606351977964474 0.9278941675696616 0.8965821631212509 0.91115221042969
          0.9099948421051479 0.8457456902730579 0.6899922962887791 0.44443934075686564 0.14548571639334495 -0.15701660026152986
          -0.43055744281515634 -0.6680856136163932 -0.8718242785891264 -1.0454109030361485 -1.1928449553728953 -1.3151127600021768
          -1.4077573004190271 -1.4581317565168068 -1.4570952190265647 -1.4139040459989305 -1.3322896848955326 -1.2102359324551795
          -1.0476490057452978 -0.8470163492135975 -0.6147179631931506 -0.3625832263622266 -0.103685173395733 0.15264575166940308
          0.4053806585636015 0.6605793623832522 0.9199156837887316 1.170114316114048 1.4096005351356022 1.6631422551856119
          1.9520672201115234 2.2904179655940267 2.312535423847214 2.312535423847214 2.312535423847214 2.312535423847214
          2.312535423847214 2.312535423847214 2.312535423847214 2.312535423847214 2.312535423847214 2.312535423847214
          2.312535423847214 2.1028859770957444 1.7467943837607496 1.476244281713891 1.2386504273999206 1.0361043423483083
          0.9177565391946222 0.9009134225027938 0.9190570721900571 0.9070969663831683 0.8189870485849936 0.6329180059779624
          0.35995693906803883 0.04676414368850838 -0.2560343019641852 -0.5237139875668174 -0.7535257000319368 -0.9491502916440593
          -1.1151816342653518 -1.2533544470117939 -1.363648252697105 -1.441295956951628 -1.4731126324283965 -1.4577203814563888
          -1.403800055319931 -1.3125340041086813 -1.1813590928142608 -1.011218965262082 -0.8055786368749742 -0.5711625970717282
          -0.31873082692962473 -0.060265787887216773 0.19459613710186427 0.4442469326863384 0.6894209428572071 0.9292476592602184
          1.1559061723346655 1.3821165874879096 1.6361762567177591 1.9320298194354995 2.279978729917084 2.312535423847214
          2.312535423847214 2.312535423847214 2.312535423847214 2.312535423847214 2.312535423847214 2.312535423847214
          2.312535423847214 2.312535423847214 2.312535423847214 2.312535423847214 1.986752522908924 1.6640555708540692
          1.4204003484910024 1.203703942174089 1.0174353481556981 0.9186830807537637 0.917384139044078 0.9336977056096422
          0.9064686373253382 0.7942574367378513 0.5808820466446889 0.28661457903617454 -0.03456250358178321 -0.3345768854969889
          -0.5952540827454085 -0.8171811151984092 -1.0047414738019398 -1.1618220058315192 -1.2894972273648475 -1.387421875225344
          -1.4491755052248168 -1.4639044206720357 -1.435116840079552 -1.369310948865439 -1.2663926410480997 -1.12399849953621
          -0.9442959482828803 -0.7325160615117372 -0.49504852099948726 -0.24183435333708656 0.014687976348552578 0.26591220800212284
          0.5084325040310587 0.7392905591294987 0.9539400197926614 1.1529164703703734 1.3599187519420342 1.6110944949266262
          1.9111630682547494 2.269682177352556 2.312535423847214 2.312535423847214 2.312535423847214 2.312535423847214
          2.312535423847214 2.312535423847214 2.312535423847214 2.312535423847214 2.312535423847214 2.312535423847214
          2.2477719288758946 1.9016605226961458 1.5938953780950345 1.3685672304691232 1.1717896912284078 1.0071297011725358
          0.9357587111780252 0.9461310972325847 0.9552278990255118 0.9101081653310941 0.7762985842470868 0.5409486358943436
          0.23229760786755088 -0.09199123562058091 -0.3874680534555921 -0.6408813436469283 -0.8551423084247729 -1.0341187376056746
          -1.1812916960476416 -1.298634994921582 -1.3842550816958843 -1.4307703586364742 -1.4301320666300124 -1.3875895356628338
          -1.3078422223113004 -1.1910586306694504 -1.0359629252788738 -0.8459051284868379 -0.6261893603984158 -0.38519175545798306
          -0.13271133607081076 0.12042251679023804 0.36542938757867904 0.5956416428565231 0.8069052177909091 0.9938681420515422
          1.1632768158131237 1.3482336464657436 1.59201063191929 1.896963989549686 2.2647471406347943 2.312535423847214
          2.312535423847214 2.312535423847214 2.312535423847214 2.312535423847214 2.312535423847214 2.312535423847214
          2.312535423847214 2.312535423847214 2.312535423847214 2.18612556518217 1.838495991810812 1.5368849648556484
          1.3231577632209697 1.1469820567791198 1.0112185852385578 0.9679949195526103 0.9853670502536667 0.9826076071540041
          0.9196245879811706 0.7688259534845555 0.5190796185286215 0.20399470737059028 -0.11852955492232002 -0.408644800520114
          -0.6546589754951437 -0.8605946753263248 -1.0311323741805603 -1.169695160923619 -1.2775005188240809 -1.3516885900818145