<VTKFile type="PolyData" version="1.0" byte_order="LittleEndian" header_type="UInt64">
  <PolyData>
    <Piece NumberOfPoints="2601" NumberOfVerts="0" NumberOfLines="0" NumberOfStrips="0" NumberOfPolys="2500">
      <PointData>
        <DataArray type="Float32" Name="zvalue" NumberOfComponents="1" format="ascii" RangeMin="-1.9247448259461384" RangeMax="3.0007198150650303">
          3.0007198150650303 3.0007198150650303 3.0007198150650303 3.0007198150650303 3.0007198150650303 3.0007198150650303
          3.0007198150650303 3.0007198150650303 3.0007198150650303 3.0007198150650303 3.0007198150650303 3.0007198150650303
          3.0007198150650303 3.0007198150650303 3.0007198150650303 3.0007198150650303 3.0007198150650303 3.0007198150650303
          3.0007198150650303 3.0007198150650303 3.0007198150650303 3.0007198150650303 3.0007198150650303 3.0007198150650303
          3.0007198150650303 3.0007198150650303 3.0007198150650303 3.0007198150650303 3.0007198150650303 3.0007198150650303
          3.0007198150650303 3.0007198150650303 3.0007198150650303 3.0007198150650303 3.0007198150650303 3.0007198150650303
          3.0007198150650303 3.0007198150650303 3.0007198150650303 3.0007198150650303 3.0007198150650303 3.0007198150650303
          3.0007198150650303 3.0007198150650303 3.0007198150650303 3.0007198150650303 3.0007198150650303 3.0007198150650303
          3.0007198150650303 3.0007198150650303 3.0007198150650303 3.0007198150650303 3.0007198150650303 3.0007198150650303
          3.0007198150650303 3.0007198150650303 3.0007198150650303 3.0007198150650303 3.0007198150650303 3.0007198150650303
          3.0007198150650303 3.0007198150650303 3.0007198150650303 3.0007198150650303 3.0007198150650303 3.0007198150650303
          3.0007198150650303 3.0007198150650303 3.0007198150650303 3.0007198150650303 3.0007198150650303 3.0007198150650303
          3.0007198150650303 3.0007198150650303 3.0007198150650303 3.0007198150650303 3.0007198150650303 3.0007198150650303
          3.0007198150650303 3.0007198150650303 3.0007198150650303 3.0007198150650303 3.0007198150650303 3.0007198150650303
          3.0007198150650303 3.0007198150650303 3.0007198150650303 3.0007198150650303 3.0007198150650303 3.0007198150650303
          3.0007198150650303 3.0007198150650303 3.0007198150650303 3.0007198150650303 3.0007198150650303 3.0007198150650303
          3.0007198150650303 3.0007198150650303 3.0007198150650303 3.0007198150650303 3.0007198150650303 3.0007198150650303
          3.0007198150650303 3.0007198150650303 3.0007198150650303 3.0007198150650303 3.0007198150650303 3.0007198150650303
          3.0007198150650303 3.0007198150650303 3.0007198150650303 3.0007198150650303 3.0007198150650303 3.0007198150650303
          3.0007198150650303 3.0007198150650303 3.0007198150650303 3.0007198150650303 3.0007198150650303 3.0007198150650303
          3.0007198150650303 3.0007198150650303 3.0007198150650303 3.0007198150650303 3.0007198150650303 3.0007198150650303
          3.0007198150650303 3.0007198150650303 3.0007198150650303 3.0007198150650303 3.0007198150650303 3.0007198150650303
          3.0007198150650303 3.0007198150650303 3.0007198150650303 3.0007198150650303 3.0007198150650303 3.0007198150650303
          3.0007198150650303 3.0007198150650303 3.0007198150650303 3.0007198150650303 3.0007198150650303 3.0007198150650303
          3.0007198150650303 3.0007198150650303 3.0007198150650303 3.0007198150650303 3.0007198150650303 3.0007198150650303
          3.0007198150650303 3.0007198150650303 3.0007198150650303 3.0007198150650303 3.0007198150650303 3.0007198150650303
          3.0007198150650303 3.0007198150650303 3.0007198150650303 3.0007198150650303 3.0007198150650303 3.0007198150650303
          3.0007198150650303 3.0007198150650303 3.0007198150650303 3.0007198150650303 3.0007198150650303 3.0007198150650303
          3.0007198150650303 3.0007198150650303 3.0007198150650303 3.0007198150650303 3.0007198150650303 3.0007198150650303
          3.0007198150650303 3.0007198150650303 3.0007198150650303 3.0007198150650303 3.0007198150650303 3.0007198150650303
          3.0007198150650303 3.0007198150650303 3.0007198150650303 3.0007198150650303 3.0007198150650303 3.0007198150650303
          3.0007198150650303 3.0007198150650303 3.0007198150650303 3.0007198150650303 3.0007198150650303 3.0007198150650303
          3.0007198150650303 3.0007198150650303 3.0007198150650303 3.0007198150650303 3.0007198150650303 3.0007198150650303
          3.0007198150650303 3.0007198150650303 3.0007198150650303 3.0007198150650303 3.0007198150650303 3.0007198150650303
          3.0007198150650303 3.0007198150650303 3.0007198150650303 3.0007198150650303 3.0007198150650303 3.0007198150650303
          3.0007198150650303 3.0007198150650303 3.0007198150650303 3.0007198150650303 3.0007198150650303 3.0007198150650303
          3.0007198150650303 3.0007198150650303 3.0007198150650303 3.0007198150650303 3.0007198150650303 3.0007198150650303
          3.0007198150650303 3.0007198150650303 3.0007198150650303 3.0007198150650303 3.0007198150650303 3.0007198150650303
          3.0007198150650303 3.0007198150650303 3.0007198150650303 3.0007198150650303 3.0007198150650303 3.0007198150650303
          3.0007198150650303 3.0007198150650303 3.0007198150650303 3.0007198150650303 3.0007198150650303 3.0007198150650303
          3.0007198150650303 3.0007198150650303 3.0007198150650303 3.0007198150650303 3.0007198150650303 3.0007198150650303
          3.0007198150650303 3.0007198150650303 3.0007198150650303 3.0007198150650303 3.0007198150650303 3.0007198150650303
          3.0007198150650303 3.0007198150650303 3.0007198150650303 3.0007198150650303 3.0007198150650303 3.0007198150650303
          3.0007198150650303 3.0007198150650303 3.0007198150650303 3.0007198150650303 3.0007198150650303 3.0007198150650303
          3.0007198150650303 3.0007198150650303 3.0007198150650303 3.0007198150650303 3.0007198150650303 3.0007198150650303
          3.0007198150650303 3.0007198150650303 3.0007198150650303 3.0007198150650303 3.0007198150650303 3.0007198150650303
          3.0007198150650303 3.0007198150650303 3.0007198150650303 3.0007198150650303 3.0007198150650303 3.0007198150650303
          3.0007198150650303 3.0007198150650303 3.0007198150650303 3.0007198150650303 3.0007198150650303 3.0007198150650303
          3.0007198150650303 3.0007198150650303 3.0007198150650303 3.0007198150650303 3.0007198150650303 3.0007198150650303
          3.0007198150650303 3.0007198150650303 3.0007198150650303 3.0007198150650303 3.0007198150650303 3.0007198150650303
          3.0007198150650303 3.0007198150650303 3.0007198150650303 3.0007198150650303 3.0007198150650303 3.0007198150650303
          3.0007198150650303 3.0007198150650303 3.0007198150650303 3.0007198150650303 3.0007198150650303 3.0007198150650303
          3.0007198150650303 3.0007198150650303 3.0007198150650303 3.0007198150650303 3.0007198150650303 3.0007198150650303
          3.0007198150650303 3.0007198150650303 3.0007198150650303 3.0007198150650303 3.0007198150650303 3.0007198150650303
          3.0007198150650303 3.0007198150650303 3.0007198150650303 3.0007198150650303 3.0007198150650303 3.0007198150650303
          3.0007198150650303 3.0007198150650303 3.0007198150650303 3.0007198150650303 3.0007198150650303 3.0007198150650303
          3.0007198150650303 3.0007198150650303 3.0007198150650303 3.0007198150650303 3.0007198150650303 3.0007198150650303
          3.0007198150650303 3.0007198150650303 3.0007198150650303 3.0007198150650303 3.0007198150650303 3.0007198150650303
          3.0007198150650303 3.0007198150650303 3.0007198150650303 3.0007198150650303 3.0007198150650303 3.0007198150650303
          3.0007198150650303 3.0007198150650303 3.0007198150650303 3.0007198150650303 3.0007198150650303 3.0007198150650303
          3.0007198150650303 3.0007198150650303 3.0007198150650303 3.0007198150650303 3.0007198150650303 3.0007198150650303
          3.0007198150650303 3.0007198150650303 3.0007198150650303 3.0007198150650303 3.0007198150650303 3.0007198150650303
          3.0007198150650303 3.0007198150650303 3.0007198150650303 3.0007198150650303 3.0007198150650303 3.0007198150650303
          3.0007198150650303 3.0007198150650303 3.0007198150650303 3.0007198150650303 3.0007198150650303 3.0007198150650303
          3.0007198150650303 3.0007198150650303 3.0007198150650303 3.0007198150650303 3.0007198150650303 3.0007198150650303
          3.0007198150650303 3.0007198150650303 3.0007198150650303 3.0007198150650303 3.0007198150650303 3.0007198150650303
          3.0007198150650303 3.0007198150650303 3.0007198150650303 3.0007198150650303 3.0007198150650303 3.0007198150650303
          3.0007198150650303 3.0007198150650303 3.0007198150650303 3.0007198150650303 3.0007198150650303 3.0007198150650303
          3.0007198150650303 3.0007198150650303 3.0007198150650303 3.0007198150650303 3.0007198150650303 3.0007198150650303
          3.0007198150650303 3.0007198150650303 3.0007198150650303 3.0007198150650303 3.0007198150650303 3.0007198150650303
          3.0007198150650303 3.0007198150650303 3.0007198150650303 3.0007198150650303 3.0007198150650303 3.0007198150650303
          3.0007198150650303 3.0007198150650303 3.0007198150650303 3.0007198150650303 3.0007198150650303 3.0007198150650303
          3.0007198150650303 3.0007198150650303 3.0007198150650303 3.0007198150650303 3.0007198150650303 3.0007198150650303
          3.0007198150650303 3.0007198150650303 3.0007198150650303 3.0007198150650303 3.0007198150650303 3.0007198150650303
          3.0007198150650303 3.0007198150650303 3.0007198150650303 3.0007198150650303 3.0007198150650303 3.0007198150650303
          3.0007198150650303 3.0007198150650303 3.0007198150650303 3.0007198150650303 3.0007198150650303 3.0007198150650303
          3.0007198150650303 3.0007198150650303 3.0007198150650303 3.0007198150650303 3.0007198150650303 3.0007198150650303
          3.0007198150650303 3.0007198150650303 3.0007198150650303 3.0007198150650303 3.0007198150650303 3.0007198150650303
          3.0007198150650303 3.0007198150650303 3.0007198150650303 3.0007198150650303 3.0007198150650303 3.0007198150650303
          3.0007198150650303 3.0007198150650303 3.0007198150650303 3.0007198150650303 3.0007198150650303 3.0007198150650303
          2.772402774757765 2.5524027440324955 2.482860016176474 2.4976525856753997 2.5612643853188124 2.6589852018851503
          2.7848745609038144 2.9617707093648726 3.0007198150650303 3.0007198150650303 3.0007198150650303 3.0007198150650303
          3.0007198150650303 3.0007198150650303 3.0007198150650303 3.0007198150650303 3.0007198150650303 3.0007198150650303
          3.0007198150650303 3.0007198150650303 3.0007198150650303 3.0007198150650303 3.0007198150650303 3.0007198150650303
          3.0007198150650303 3.0007198150650303 3.0007198150650303 3.0007198150650303 3.0007198150650303 3.0007198150650303
          3.0007198150650303 3.0007198150650303 3.0007198150650303 3.0007198150650303 3.0007198150650303 3.0007198150650303
          3.0007198150650303 3.0007198150650303 3.0007198150650303 3.0007198150650303 3.0007198150650303 3.0007198150650303
          3.0007198150650303 3.0007198150650303 3.0007198150650303 3.0007198150650303 3.0007198150650303 3.0007198150650303
          3.0007198150650303 2.8316475825429497 2.4407382895059584 2.145677398279992 1.986074512944765 1.935688273539117
          1.9562382850826368 2.027119130993952 2.128180093697885 2.2554902133882657 2.42795142460416 2.6721801471397253
          2.9677441993846814 3.0007198150650303 3.0007198150650303 3.0007198150650303 3.0007198150650303 3.0007198150650303
          3.0007198150650303 3.0007198150650303 3.0007198150650303 3.0007198150650303 3.0007198150650303 3.0007198150650303
          3.0007198150650303 3.0007198150650303 3.0007198150650303 3.0007198150650303 3.0007198150650303 3.0007198150650303
          3.0007198150650303 3.0007198150650303 3.0007198150650303 3.0007198150650303 3.0007198150650303 3.0007198150650303
          3.0007198150650303 3.0007198150650303 3.0007198150650303 3.0007198150650303 3.0007198150650303 3.0007198150650303
          3.0007198150650303 3.0007198150650303 3.0007198150650303 3.0007198150650303 3.0007198150650303 3.0007198150650303
          3.0007198150650303 3.0007198150650303 3.0007198150650303 2.612998687966917 2.232368239321825 1.9389904372358957
          1.7482835301995325 1.6455425690216625 1.6047904391501302 1.6137706670533458 1.6697548375026834 1.7579079398208208
          1.8760440941952117 2.041174782140362 2.247422968380671 2.493343494206843 2.7994462563922657 3.0007198150650303
          3.0007198150650303 3.0007198150650303 3.0007198150650303 3.0007198150650303 3.0007198150650303 3.0007198150650303
          3.0007198150650303 3.0007198150650303 3.0007198150650303 3.0007198150650303 3.0007198150650303 3.0007198150650303
          3.0007198150650303 3.0007198150650303 3.0007198150650303 3.0007198150650303 3.0007198150650303 3.0007198150650303
          3.0007198150650303 3.0007198150650303 3.0007198150650303 3.0007198150650303 3.0007198150650303 3.0007198150650303
          3.0007198150650303 3.0007198150650303 3.0007198150650303 3.0007198150650303 3.0007198150650303 3.0007198150650303
          3.0007198150650303 3.0007198150650303 3.0007198150650303 3.0007198150650303 2.930173474818532 2.4557217953578534
          2.0777678031796087 1.8049641872386977 1.6251050665495033 1.5157292853114 1.4529451431733016 1.4229297969449382
          1.4246221460053294 1.4607844393013514 1.5307837544519547 1.6277946290387832 1.7661711120889638 1.9301787741434104
          2.1136073793326795 2.3499941859803792 2.667571744427169 3.0007198150650303 3.0007198150650303 3.0007198150650303
          3.0007198150650303 3.0007198150650303 3.0007198150650303 3.0007198150650303 3.0007198150650303 3.0007198150650303
          3.0007198150650303 3.0007198150650303 3.0007198150650303 3.0007198150650303 3.0007198150650303 3.0007198150650303
          3.0007198150650303 3.0007198150650303 3.0007198150650303 3.0007198150650303 3.0007198150650303 3.0007198150650303
          3.0007198150650303 3.0007198150650303 3.0007198150650303 3.0007198150650303 3.0007198150650303 3.0007198150650303
          3.0007198150650303 3.0007198150650303 3.0007198150650303 3.0007198150650303 3.0007198150650303 3.0007198150650303
          2.8911224112796314 2.3910695751915143 2.007573108135272 1.7458370979918858 1.5769973195106999 1.4633777271526935
          1.3883168604252174 1.3426962585130757 1.3198575501526 1.3185619658375296 1.339394199613237 1.3875157580269109
          1.4624012612147725 1.5681558060959184 1.6880889888326605 1.815034118265696 1.9810578699480894 2.2314731408788373
          2.5879822204822927 3.0007198150650303 3.0007198150650303 3.0007198150650303 3.0007198150650303 3.0007198150650303
          3.0007198150650303 3.0007198150650303 3.0007198150650303 3.0007198150650303 3.0007198150650303 3.0007198150650303
          3.0007198150650303 3.0007198150650303 3.0007198150650303 3.0007198150650303 3.0007198150650303 3.0007198150650303
          3.0007198150650303 3.0007198150650303 3.0007198150650303 3.0007198150650303 3.0007198150650303 3.0007198150650303
          3.0007198150650303 3.0007198150650303 3.0007198150650303 3.0007198150650303 3.0007198150650303 3.0007198150650303
          3.0007198150650303 3.0007198150650303 3.0007198150650303 2.5001463262340797 2.0699455984015045 1.7793090986505575
          1.5933507583113407 1.4687486953377458 1.3763318866194185 1.3092066437821126 1.2646194842846008 1.2406609930312178
          1.2348437684754443 1.247296591595056 1.2825923704379874 1.3460006066952561 1.4307101045178718 1.511478618929622
          1.5862480847740332 1.6917972231804002 1.8748170582354868 2.1857192484933727 2.6326237092231426 3.0007198150650303
          3.0007198150650303 3.0007198150650303 3.0007198150650303 3.0007198150650303 3.0007198150650303 3.0007198150650303
          3.0007198150650303 3.0007198150650303 3.0007198150650303 3.0007198150650303 3.0007198150650303 3.0007198150650303
          3.0007198150650303 3.0007198150650303 3.0007198150650303 3.0007198150650303 3.0007198150650303 3.0007198150650303
          3.0007198150650303 3.0007198150650303 3.0007198150650303 3.0007198150650303 3.0007198150650303 3.0007198150650303
          3.0007198150650303 3.0007198150650303 3.0007198150650303 3.0007198150650303 3.0007198150650303 2.8239709253182697
          2.2911544951335476 1.9070936176251208 1.6589547982997472 1.5040447109325816 1.3945239683736903 1.3035928257373828
          1.2308319780867742 1.176580792458708 1.1393015215438964 1.118713036861888 1.1189612306673693 1.148565020018489
          1.2163966697870936 1.308019914902749 1.3913405204737572 1.4509232528582496 1.5112862815169454 1.6236072862080837
          1.864707176056509 2.287378433093558 2.8218648641310105 3.0007198150650303 3.0007198150650303 3.0007198150650303
          3.0007198150650303 3.0007198150650303 3.0007198150650303 3.0007198150650303 3.0007198150650303 3.0007198150650303
          3.0007198150650303 3.0007198150650303 3.0007198150650303 3.0007198150650303 3.0007198150650303 3.0007198150650303
          3.0007198150650303 3.0007198150650303 3.0007198150650303 3.0007198150650303 3.0007198150650303 3.0007198150650303
          3.0007198150650303 3.0007198150650303 3.0007198150650303 3.0007198150650303 3.0007198150650303 3.0007198150650303
          3.0007198150650303 3.0007198150650303 2.6626385169425504 2.156587273471839 1.802636014962471 1.5799241037216527
          1.4365497975218708 1.3198969473365145 1.213090418133241 1.118770123680156 1.040079847159949 0.9726958101448314
          0.922295749534306 0.8996395076535889 0.9196630946337624 0.9998788118977078 1.127616389587004 1.2601379639934276
          1.3666583324667485 1.445614754504156 1.525187025250899 1.673968093731292 2.0056229800870606 2.5342650012749504
          3.0007198150650303 3.0007198150650303 3.0007198150650303 3.0007198150650303 3.0007198150650303 3.0007198150650303
          3.0007198150650303 3.0007198150650303 3.0007198150650303 3.0007198150650303 3.0007198150650303 3.0007198150650303
          3.0007198150650303 3.0007198150650303 3.0007198150650303 3.0007198150650303 3.0007198150650303 3.0007198150650303
          3.0007198150650303 3.0007198150650303 3.0007198150650303 3.0007198150650303 3.0007198150650303 3.0007198150650303
          3.0007198150650303 3.0007198150650303 3.0007198150650303 3.0007198150650303 3.0007198150650303 2.5343677598356558
          2.059851837672212 1.7321993673379088 1.5208920577989908 1.3620568419735954 1.216454600747769 1.0769146011044215
          0.9494477542940234 0.8337988383802152 0.7268076821670469 0.6369944893974424 0.5799280259790868 0.5816920058651411
          0.669081599827204 0.8400041190120952 1.0485908086119595 1.2427329231905861 1.3976665186638195 1.5135754704259659
          1.6243780698634351 1.8251180447063442 2.2751559576972333 2.8625340876867162 3.0007198150650303 3.0007198150650303
          3.0007198150650303 3.0007198150650303 3.0007198150650303 3.0007198150650303 3.0007198150650303 3.0007198150650303
          3.0007198150650303 3.0007198150650303 3.0007198150650303 3.0007198150650303 3.0007198150650303 3.0007198150650303
          3.0007198150650303 3.0007198150650303 3.0007198150650303 3.0007198150650303 3.0007198150650303 3.0007198150650303
          3.0007198150650303 3.0007198150650303 3.0007198150650303 3.0007198150650303 3.0007198150650303 3.0007198150650303
          3.0007198150650303 2.9915365354391503 2.4337891864025187 1.992346752751777 1.681957557667201 1.4537705370815868
          1.2602558985933572 1.0766753617381108 0.8997392341309146 0.7331082134824463 0.577548424539986 0.43061273263051825
          0.29954552749993857 0.20491366831485697 0.18088174022507977 0.26171208357734616 0.45811183630121466 0.7379900455740955
          1.035544696522844 1.291897415382079 1.4807224559594878 1.6114423918073948 1.7400902453321947 2.0522703494343104
          2.606616252247189 3.0007198150650303 3.0007198150650303 3.0007198150650303 3.0007198150650303 3.0007198150650303
          3.0007198150650303 3.0007198150650303 3.0007198150650303 3.0007198150650303 3.0007198150650303 3.0007198150650303
          3.0007198150650303 3.0007198150650303 3.0007198150650303 3.0007198150650303 3.0007198150650303 3.0007198150650303
          3.0007198150650303 3.0007198150650303 3.0007198150650303 3.0007198150650303 3.0007198150650303 3.0007198150650303
          3.0007198150650303 3.0007198150650303 3.0007198150650303 3.0007198150650303 2.875435966189415 2.3520483208361846
          1.9372619865446352 1.6241297320100339 1.3713257689193266 1.1424381966312647 0.9229661334411587 0.7104419606109589
          0.5077955256433017 0.30891600762197635 0.11520386973963882 -0.06126269736215914 -0.19362417821833938 -0.2402462358179892
          -0.1636394881418857 0.051226241110324505 0.37991112486965745 0.7615864604583356 1.1213523224977326 1.3941330579204534
          1.5695210578362444 1.6892393072650682 1.8835201376458177 2.3495116753142065 2.9536832844546614 3.0007198150650303
          3.0007198150650303 3.0007198150650303 3.0007198150650303 3.0007198150650303 3.0007198150650303 3.0007198150650303
          3.0007198150650303 3.0007198150650303 3.0007198150650303 3.0007198150650303 3.0007198150650303 3.0007198150650303
          3.0007198150650303 3.0007198150650303 3.0007198150650303 3.0007198150650303 3.0007198150650303 3.0007198150650303
          3.0007198150650303 3.0007198150650303 3.0007198150650303 3.0007198150650303 3.0007198150650303 3.0007198150650303
          3.0007198150650303 2.7656916088684715 2.27523461155375 1.876175380736193 1.5551063304281127 1.2828038943243554
          1.0305175802032298 0.785691474551355 0.540287604289048 0.2900944712030457 0.0345958137887005 -0.21881811692794384
          -0.4440196058634402 -0.6077320382960724 -0.6677659633063873 -0.5797625978763694 -0.3289543517530755 0.04824868024416742
          0.49192737650452656 0.924353207322217 1.2695835905407202 1.4927294299225382 1.6295573949182902 1.76557432521601
          2.122382816404374 2.692621566950815 3.0007198150650303 3.0007198150650303 3.0007198150650303 3.0007198150650303
          3.0007198150650303 3.0007198150650303 3.0007198150650303 3.0007198150650303 3.0007198150650303 3.0007198150650303
          3.0007198150650303 3.0007198150650303 3.0007198150650303 3.0007198150650303 3.0007198150650303 3.0007198150650303
          3.0007198150650303 3.0007198150650303 3.0007198150650303 3.0007198150650303 3.0007198150650303 3.0007198150650303
          3.0007198150650303 3.0007198150650303 3.0007198150650303 3.0007198150650303 2.661354653486107 2.1993964639083248
          1.8133928890917093 1.4918108125217862 1.2093860724814876 0.9426237945590605 0.6739985453987519 0.3849391484541591
          0.07017759330582382 -0.25796643307150496 -0.5738942313576707 -0.8420470642483316 -1.0262859217548148 -1.0773662118114753
          -0.9539306016273729 -0.6545133629054367 -0.21661083088735866 0.28500934029369296 0.7645015757946665 1.1493757194997334
          1.4039367069405855 1.5577679991545 1.6735641162769577 1.9401905562435628 2.4560703763232485 3.0007198150650303
          3.0007198150650303 3.0007198150650303 3.0007198150650303 3.0007198150650303 3.0007198150650303 3.0007198150650303
          3.0007198150650303 3.0007198150650303 3.0007198150650303 3.0007198150650303 3.0007198150650303 3.0007198150650303
          3.0007198150650303 3.0007198150650303 3.0007198150650303 3.0007198150650303 3.0007198150650303 3.0007198150650303
          3.0007198150650303 3.0007198150650303 3.0007198150650303 3.0007198150650303 3.0007198150650303 3.0007198150650303
          3.0007198150650303 2.5749064979416003 2.139743879081727 1.7729807056492268 1.4557731077170168 1.1660689323704683
          0.879591004258406 0.5763488232010789 0.23022656158110696 -0.15686564298836012 -0.5613324400738929 -0.9335963796740413
          -1.2296717852025834 -1.4062298519409817 -1.424987233001337 -1.256988755875804 -0.8952422043203178 -0.38967875849369565
          0.16495205635403615 0.6741611449672191 1.0684787430738925 1.3264664323108408 1.4842433412091316 1.5944081641753494
          1.7966005151533486 2.246272767309079 2.8187869132401366 3.0007198150650303 3.0007198150650303 3.0007198150650303
          3.0007198150650303 3.0007198150650303 3.0007198150650303 3.0007198150650303 3.0007198150650303 3.0007198150650303
          3.0007198150650303 3.0007198150650303 3.0007198150650303 3.0007198150650303 3.0007198150650303 3.0007198150650303
          3.0007198150650303 3.0007198150650303 3.0007198150650303 3.0007198150650303 3.0007198150650303 3.0007198150650303
          3.0007198150650303 3.0007198150650303 3.0007198150650303 3.0007198150650303 2.525703162709188 2.1196403854108192
          1.774916346038632 1.461444404757403 1.1543399776348173 0.8373298785078522 0.48929630239232363 0.0840329770567259
          -0.3749192645919384 -0.8441935402229116 -1.2569231612608196 -1.5520096664587042 -1.695033849410883 -1.675523829792484
          -1.4634322366036694 -1.0337476959252336 -0.4559292792376699 0.14228108338210418 0.6556595679883066 1.0338619888950038
          1.2750366386041454 1.424596304277632 1.5337728336368346 1.6927950027315075 2.06110472927511 2.5903742322008543
          3.0007198150650303 3.0007198150650303 3.0007198150650303 3.0007198150650303 3.0007198150650303 3.0007198150650303
          3.0007198150650303 3.0007198150650303 3.0007198150650303 3.0007198150650303 3.0007198150650303 3.0007198150650303
          3.0007198150650303 3.0007198150650303 3.0007198150650303 3.0007198150650303 3.0007198150650303 3.0007198150650303
          3.0007198150650303 3.0007198150650303 3.0007198150650303 3.0007198150650303 3.0007198150650303 3.0007198150650303
          2.983901866400654 2.5230504745655904 2.1461007054912185 1.8202121664956898 1.5040013635954332 1.1748183847812828
          0.8227205985440281 0.42857334563548083 -0.030812664835196693 -0.5489671245794718 -1.0655257540776988 -1.493133327881428
          -1.7638437530606395 -1.8665945906397545 -1.8132358913121855 -1.5598096384729256 -1.052575790015145 -0.4108745807507158
          0.2003938075242361 0.696964896787692 1.045932772249115 1.2580211526065497 1.3904267783555382 1.4944062296368026
          1.6273380551593457 1.914419409213057 2.3821654881573138 2.9590099658572515 3.0007198150650303 3.0007198150650303
          3.0007198150650303 3.0007198150650303 3.0007198150650303 3.0007198150650303 3.0007198150650303 3.0007198150650303
          3.0007198150650303 3.0007198150650303 3.0007198150650303 3.0007198150650303 3.0007198150650303 3.0007198150650303
          3.0007198150650303 3.0007198150650303 3.0007198150650303 3.0007198150650303 3.0007198150650303 3.0007198150650303
          3.0007198150650303 3.0007198150650303 3.0007198150650303 3.0007198150650303 2.5632690881916194 2.20859960629164
          1.8947567045625202 1.5776022889076615 1.2308550207922617 0.8479606146713937 0.4149717735762574 -0.08448845689785606
          -0.6429731843251976 -1.1887948117794664 -1.6174791308114511 -1.8569859329604197 -1.9247448259461384 -1.838446539312319
          -1.5255322577603447 -0.9448507195129124 -0.2726747797297141 0.32516491658711144 0.7887222341247253 1.0987977641473372
          1.2762394183393455 1.3847721649207199 1.4811759235723867 1.6006896922715863 1.836029389183104 2.246546057722545
          2.8059858697246276 3.0007198150650303 3.0007198150650303 3.0007198150650303 3.0007198150650303 3.0007198150650303
          3.0007198150650303 3.0007198150650303 3.0007198150650303 3.0007198150650303 3.0007198150650303 3.0007198150650303
          3.0007198150650303 3.0007198150650303 3.0007198150650303 3.0007198150650303 3.0007198150650303 3.0007198150650303
          3.0007198150650303 3.0007198150650303 3.0007198150650303 3.0007198150650303 3.0007198150650303 3.0007198150650303
          3.0007198150650303 2.6370974974517614 2.2907823986514244 1.9873232533990652 1.67914336346389 1.3277710483469942
          0.9242877303493332 0.46634233662648283 -0.054835755871379226 -0.6357487818842974 -1.1955426012955892 -1.6201793394758797
          -1.838336617553818 -1.8779101705332286 -1.7404416267025482 -1.3466365461177392 -0.7261983329678475 -0.06946062822302167
          0.4883689307718018 0.9035481187536772 1.1713940471893571 1.3162341431077356 1.4070930429173358 1.5004108896793167
          1.6225004826084368 1.857241608252529 2.257604004068499 2.824416231544628 3.0007198150650303 3.0007198150650303
          3.0007198150650303 3.0007198150650303 3.0007198150650303 3.0007198150650303 3.0007198150650303 3.0007198150650303
          3.0007198150650303 3.0007198150650303 3.0007198150650303 3.0007198150650303 3.0007198150650303 3.0007198150650303
          3.0007198150650303 3.0007198150650303 3.0007198150650303 3.0007198150650303 3.0007198150650303 3.0007198150650303
          3.0007198150650303 3.0007198150650303 3.0007198150650303 3.0007198150650303 2.7284414773195915 2.3828397485137947
          2.088017290074185 1.7983326748160526 1.4622000716240153 1.057584551473501 0.5935650514928356 0.06423428018410954
          -0.5172259905014814 -1.0786916275100564 -1.500399083146664 -1.706780434037957 -1.7132969653673529 -1.4999886526722686
          -1.0428679697063628 -0.43314404832635667 0.16739513546496984 0.6652382904029506 1.028279029434897 1.2533904071344155
          1.376767387286136 1.4644109430003696 1.5648696626087526 1.7153737758838203 1.9982876147014543 2.443552185958616
          3.0007198150650303 3.0007198150650303 3.0007198150650303 3.0007198150650303 3.0007198150650303 3.0007198150650303
          3.0007198150650303 3.0007198150650303 3.0007198150650303 3.0007198150650303 3.0007198150650303 3.0007198150650303